TITLE = "B00095"
VARIABLES = "X [mm]", "Y [mm]", "Vx [m/s]", "Vy [m/s]", "Flag"
ZONE T="Frame 1", I=102, J=77, F=POINT
-13.159 53.561 0.00000 -0.00000 0 
-11.514 53.561 9.60332 0.26651 2 
-9.869 53.561 9.07333 0.09226 2 
-8.224 53.561 7.93917 0.08073 2 
-6.579 53.561 6.80500 0.06920 2 
-4.935 53.561 5.67083 0.05767 2 
-3.290 53.561 4.53667 0.04613 2 
-1.645 53.561 3.40250 0.03460 2 
0.000 53.561 2.26833 0.02307 2 
1.645 53.561 1.13417 0.01153 2 
3.290 53.561 0.00000 -0.00000 0 
4.935 53.561 0.00000 -0.00000 0 
6.579 53.561 0.00000 -0.00000 0 
8.224 53.561 0.00000 -0.00000 0 
9.869 53.561 0.00000 -0.00000 0 
11.514 53.561 0.00000 -0.00000 0 
13.159 53.561 0.00000 -0.00000 0 
14.804 53.561 0.00000 -0.00000 0 
16.449 53.561 0.00000 -0.00000 0 
18.093 53.561 0.00000 -0.00000 0 
19.738 53.561 0.00000 -0.00000 0 
21.383 53.561 0.00000 -0.00000 0 
23.028 53.561 0.72205 0.06001 2 
24.673 53.561 5.49506 0.06252 2 
26.318 53.561 9.39309 0.22796 2 
27.963 53.561 9.37808 0.06986 2 
29.607 53.561 9.41636 0.07959 2 
31.252 53.561 9.45465 0.08932 2 
32.897 53.561 9.49294 0.09905 2 
34.542 53.561 9.53122 0.10879 2 
36.187 53.561 9.56951 0.11852 2 
37.832 53.561 9.60780 0.12825 2 
39.477 53.561 9.64609 0.13798 2 
41.121 53.561 9.68437 0.14771 2 
42.766 53.561 9.72266 0.15744 2 
44.411 53.561 9.76095 0.16717 2 
46.056 53.561 9.79923 0.17690 2 
47.701 53.561 9.83752 0.18663 2 
49.346 53.561 9.87581 0.19636 2 
50.991 53.561 9.91410 0.20609 2 
52.636 53.561 9.95238 0.21582 2 
54.280 53.561 9.99067 0.22555 2 
55.925 53.561 10.02896 0.23528 2 
57.570 53.561 10.06724 0.24501 2 
59.215 53.561 10.10553 0.25475 2 
60.860 53.561 10.14382 0.26448 2 
62.505 53.561 10.18211 0.27421 2 
64.150 53.561 10.22039 0.28394 2 
65.794 53.561 10.25868 0.29367 2 
67.439 53.561 10.29697 0.30340 2 
69.084 53.561 10.33525 0.31313 2 
70.729 53.561 10.37354 0.32286 2 
72.374 53.561 10.44458 0.46958 2 
74.019 53.561 10.51341 0.53170 2 
75.664 53.561 10.53533 0.63898 2 
77.308 53.561 10.50906 0.63472 2 
78.953 53.561 10.58394 0.58057 2 
80.598 53.561 10.68596 0.51831 2 
82.243 53.561 10.73108 0.50927 2 
83.888 53.561 10.62844 0.54627 2 
85.533 53.561 10.77118 0.53517 2 
87.178 53.561 10.91391 0.52407 2 
88.822 53.561 10.94502 0.52814 2 
90.467 53.561 10.95698 0.48047 2 
92.112 53.561 10.93193 0.40912 2 
93.757 53.561 10.90687 0.33778 2 
95.402 53.561 10.88182 0.26643 2 
97.047 53.561 11.02202 0.26170 2 
98.692 53.561 11.11332 0.36888 2 
100.336 53.561 5.55666 0.18444 2 
101.981 53.561 0.00000 -0.00000 0 
103.626 53.561 0.00000 -0.00000 0 
105.271 53.561 0.00000 -0.00000 0 
106.916 53.561 -0.43491 0.28662 2 
108.561 53.561 11.95732 0.14494 2 
110.206 53.561 11.35178 0.10509 2 
111.850 53.561 11.00595 0.13191 2 
113.495 53.561 11.03934 0.20543 2 
115.140 53.561 10.99166 0.20756 2 
116.785 53.561 11.07940 0.28202 2 
118.430 53.561 11.00145 0.30492 2 
120.075 53.561 11.22417 0.22143 2 
121.720 53.561 10.91724 0.29203 2 
123.364 53.561 10.95342 0.25841 2 
125.009 53.561 11.25371 0.14434 2 
126.654 53.561 11.08747 -0.10518 2 
128.299 53.561 10.92123 -0.35470 2 
129.944 53.561 10.91250 -0.33354 2 
131.589 53.561 10.89933 -0.24601 2 
133.234 53.561 10.95244 -0.35927 2 
134.879 53.561 10.83010 -0.39495 2 
136.523 53.561 10.92314 -0.33806 2 
138.168 53.561 11.00064 -0.35924 2 
139.813 53.561 10.73088 -0.43462 2 
141.458 53.561 10.66782 -0.50104 2 
143.103 53.561 10.53951 -0.44839 2 
144.748 53.561 10.58223 -0.29897 2 
146.393 53.561 10.45737 -0.25396 2 
148.037 53.561 10.14924 -0.40267 2 
149.682 53.561 10.27369 -0.57686 2 
151.327 53.561 0.00000 -0.00000 0 
152.972 53.561 0.00000 -0.00000 0 
-13.159 51.916 0.00000 -0.00000 0 
-11.514 51.916 9.69129 0.48301 2 
-9.869 51.916 9.01450 0.76111 2 
-8.224 51.916 9.37253 0.60045 2 
-6.579 51.916 9.06482 0.56478 2 
-4.935 51.916 9.22667 0.48369 2 
-3.290 51.916 9.14123 0.56032 2 
-1.645 51.916 9.28752 0.65764 2 
0.000 51.916 9.56703 0.81488 2 
1.645 51.916 4.78352 0.40744 2 
3.290 51.916 0.00000 -0.00000 0 
4.935 51.916 0.00000 -0.00000 0 
6.579 51.916 0.00000 -0.00000 0 
8.224 51.916 0.00000 -0.00000 0 
9.869 51.916 0.00000 -0.00000 0 
11.514 51.916 0.00000 -0.00000 0 
13.159 51.916 0.00000 -0.00000 0 
14.804 51.916 0.00000 -0.00000 0 
16.449 51.916 0.00000 -0.00000 0 
18.093 51.916 0.00000 -0.00000 0 
19.738 51.916 0.00000 -0.00000 0 
21.383 51.916 0.00000 -0.00000 0 
23.028 51.916 0.26770 0.17226 2 
24.673 51.916 3.66002 -0.23656 2 
26.318 51.916 9.73139 0.95488 2 
27.963 51.916 9.34540 1.25278 2 
29.607 51.916 9.51187 1.39450 2 
31.252 51.916 9.46836 1.28304 2 
32.897 51.916 9.41804 1.14777 2 
34.542 51.916 9.39090 1.38808 2 
36.187 51.916 9.46255 1.34519 2 
37.832 51.916 9.53439 1.50860 2 
39.477 51.916 9.55914 1.60876 2 
41.121 51.916 9.67754 1.65924 2 
42.766 51.916 9.83825 1.43740 2 
44.411 51.916 9.79443 1.26199 2 
46.056 51.916 9.56690 1.43203 2 
47.701 51.916 9.67581 1.49834 2 
49.346 51.916 9.84322 1.24942 2 
50.991 51.916 9.65591 1.06745 2 
52.636 51.916 10.02464 1.42815 2 
54.280 51.916 10.16846 1.20308 2 
55.925 51.916 10.07083 1.41943 2 
57.570 51.916 10.00905 1.30246 2 
59.215 51.916 10.14320 1.33206 2 
60.860 51.916 9.91403 1.51358 2 
62.505 51.916 9.95100 1.49242 2 
64.150 51.916 10.47012 1.27481 2 
65.794 51.916 10.33828 1.52948 2 
67.439 51.916 10.31828 1.38284 2 
69.084 51.916 10.26862 1.13760 2 
70.729 51.916 10.24431 1.38727 2 
72.374 51.916 10.40216 1.29420 2 
74.019 51.916 10.31371 0.77289 2 
75.664 51.916 10.56441 1.19506 2 
77.308 51.916 10.56169 1.11342 2 
78.953 51.916 10.49372 1.20600 2 
80.598 51.916 10.60040 1.39096 2 
82.243 51.916 10.61464 1.28581 2 
83.888 51.916 10.42401 1.04458 2 
85.533 51.916 10.70366 1.30850 2 
87.178 51.916 10.83278 1.17858 2 
88.822 51.916 10.91164 1.09945 2 
90.467 51.916 10.89005 1.23080 2 
92.112 51.916 10.74879 1.38384 2 
93.757 51.916 10.56684 1.03671 2 
95.402 51.916 11.01962 1.03362 2 
97.047 51.916 11.04030 1.50204 2 
98.692 51.916 8.23313 0.88584 2 
100.336 51.916 5.42597 0.26963 2 
101.981 51.916 0.00000 -0.00000 0 
103.626 51.916 0.00000 -0.00000 0 
105.271 51.916 0.00000 -0.00000 0 
106.916 51.916 4.68384 0.22768 2 
108.561 51.916 9.36767 0.45535 2 
110.206 51.916 11.44325 0.61844 2 
111.850 51.916 10.94041 0.71810 2 
113.495 51.916 11.04443 0.41278 2 
115.140 51.916 11.08405 0.11128 2 
116.785 51.916 10.92030 0.52895 2 
118.430 51.916 10.93571 0.36924 2 
120.075 51.916 11.21603 -0.01199 2 
121.720 51.916 11.09705 0.23107 2 
123.364 51.916 11.11381 -0.04973 2 
125.009 51.916 11.28227 -0.23588 2 
126.654 51.916 11.07967 -0.43359 2 
128.299 51.916 10.82776 -0.42366 2 
129.944 51.916 11.09838 -0.30192 2 
131.589 51.916 10.74686 -0.30284 2 
133.234 51.916 11.20661 -0.57282 2 
134.879 51.916 10.98495 -0.96290 2 
136.523 51.916 10.82676 -0.81348 2 
138.168 51.916 10.73729 -0.77777 2 
139.813 51.916 10.98521 -0.69792 2 
141.458 51.916 10.60096 -0.77618 2 
143.103 51.916 10.68007 -0.87039 2 
144.748 51.916 10.47740 -1.08582 2 
146.393 51.916 10.45235 -0.79017 2 
148.037 51.916 10.16994 -0.94800 2 
149.682 51.916 10.24782 -0.65793 2 
151.327 51.916 10.60387 -0.88395 2 
152.972 51.916 0.00000 -0.00000 0 
-13.159 50.271 0.00000 -0.00000 0 
-11.514 50.271 9.65763 0.51153 2 
-9.869 50.271 9.05188 0.50440 2 
-8.224 50.271 9.46598 0.36723 2 
-6.579 50.271 9.33327 0.42804 2 
-4.935 50.271 9.44177 0.49520 2 
-3.290 50.271 9.22601 0.64565 2 
-1.645 50.271 9.16880 0.70574 2 
0.000 50.271 9.20755 0.59579 2 
1.645 50.271 4.60377 0.29789 2 
3.290 50.271 0.00000 -0.00000 0 
4.935 50.271 0.00000 -0.00000 0 
6.579 50.271 0.00000 -0.00000 0 
8.224 50.271 0.00000 -0.00000 0 
9.869 50.271 0.00000 -0.00000 0 
11.514 50.271 0.00000 -0.00000 0 
13.159 50.271 0.00000 -0.00000 0 
14.804 50.271 0.00000 -0.00000 0 
16.449 50.271 0.00000 -0.00000 0 
18.093 50.271 0.00000 -0.00000 0 
19.738 50.271 0.00000 -0.00000 0 
21.383 50.271 0.00000 -0.00000 0 
23.028 50.271 -0.18665 0.28451 2 
24.673 50.271 2.08937 -0.35330 2 
26.318 50.271 9.62524 0.88546 2 
27.963 50.271 9.10843 1.22041 2 
29.607 50.271 9.40214 1.15150 2 
31.252 50.271 9.54799 0.88256 2 
32.897 50.271 9.33851 1.04346 2 
34.542 50.271 9.53085 1.03473 2 
36.187 50.271 9.52684 0.97174 2 
37.832 50.271 9.63110 1.02864 2 
39.477 50.271 9.74855 1.24700 2 
41.121 50.271 9.58688 1.29524 2 
42.766 50.271 9.86279 1.11054 2 
44.411 50.271 9.85718 0.95611 2 
46.056 50.271 9.71251 1.18865 2 
47.701 50.271 9.65130 1.08561 2 
49.346 50.271 9.86277 1.05018 2 
50.991 50.271 9.68899 0.99859 2 
52.636 50.271 9.84740 1.26235 2 
54.280 50.271 10.10976 1.14050 2 
55.925 50.271 9.86507 1.15413 2 
57.570 50.271 9.99260 1.30485 2 
59.215 50.271 10.02541 1.12736 2 
60.860 50.271 10.10140 1.08754 2 
62.505 50.271 10.11011 0.95383 2 
64.150 50.271 10.02752 0.99591 2 
65.794 50.271 10.34088 1.31571 2 
67.439 50.271 10.51108 1.07412 2 
69.084 50.271 10.34658 0.86007 2 
70.729 50.271 10.21984 0.99711 2 
72.374 50.271 10.37409 0.79806 2 
74.019 50.271 10.11402 1.01407 2 
75.664 50.271 10.55370 0.91043 2 
77.308 50.271 10.69355 1.07574 2 
78.953 50.271 10.70792 0.81335 2 
80.598 50.271 10.54613 0.95975 2 
82.243 50.271 10.44905 1.13983 2 
83.888 50.271 10.36805 1.00960 2 
85.533 50.271 10.72345 1.08403 2 
87.178 50.271 10.85542 1.08435 2 
88.822 50.271 10.68013 1.00858 2 
90.467 50.271 10.75169 0.76431 2 
92.112 50.271 10.87265 0.95406 2 
93.757 50.271 10.73887 0.76982 2 
95.402 50.271 10.95393 1.11323 2 
97.047 50.271 11.22520 1.09881 2 
98.692 50.271 9.67785 0.57421 2 
100.336 50.271 5.80176 0.18955 2 
101.981 50.271 0.00000 -0.00000 0 
103.626 50.271 0.00000 -0.00000 0 
105.271 50.271 0.00000 -0.00000 0 
106.916 50.271 4.26302 0.25377 2 
108.561 50.271 8.52603 0.50753 2 
110.206 50.271 12.13218 0.39938 2 
111.850 50.271 11.10160 0.46691 2 
113.495 50.271 11.34642 0.38070 2 
115.140 50.271 11.34691 0.24677 2 
116.785 50.271 11.14801 0.42177 2 
118.430 50.271 11.12520 0.37113 2 
120.075 50.271 11.19463 0.10278 2 
121.720 50.271 11.13857 0.26503 2 
123.364 50.271 11.16363 -0.13474 2 
125.009 50.271 11.04183 -0.32626 2 
126.654 50.271 10.99848 -0.28938 2 
128.299 50.271 11.36421 -0.38447 2 
129.944 50.271 11.04939 -0.36558 2 
131.589 50.271 10.79001 -0.50350 2 
133.234 50.271 11.20302 -0.63977 2 
134.879 50.271 10.83691 -0.88552 2 
136.523 50.271 11.07406 -0.57007 2 
138.168 50.271 10.69932 -0.66778 2 
139.813 50.271 10.47082 -0.66504 2 
141.458 50.271 10.35206 -0.67886 2 
143.103 50.271 10.70008 -0.73336 2 
144.748 50.271 10.48810 -0.78199 2 
146.393 50.271 10.54266 -0.67312 2 
148.037 50.271 10.47582 -0.65704 2 
149.682 50.271 10.24308 -0.98621 2 
151.327 50.271 10.31619 -0.96947 2 
152.972 50.271 0.00000 -0.00000 0 
-13.159 48.626 0.00000 -0.00000 0 
-11.514 48.626 9.83148 0.63707 2 
-9.869 48.626 9.15173 0.39811 2 
-8.224 48.626 9.42584 0.32143 2 
-6.579 48.626 9.16737 0.56939 2 
-4.935 48.626 9.26710 0.48992 2 
-3.290 48.626 9.17839 0.56094 2 
-1.645 48.626 9.19662 0.61661 2 
0.000 48.626 9.40942 0.38305 2 
1.645 48.626 9.59877 0.08075 2 
3.290 48.626 0.00000 -0.00000 0 
4.935 48.626 0.00000 -0.00000 0 
6.579 48.626 0.00000 -0.00000 0 
8.224 48.626 0.00000 -0.00000 0 
9.869 48.626 0.00000 -0.00000 0 
11.514 48.626 0.00000 -0.00000 0 
13.159 48.626 0.00000 -0.00000 0 
14.804 48.626 0.00000 -0.00000 0 
16.449 48.626 0.00000 -0.00000 0 
18.093 48.626 0.00000 -0.00000 0 
19.738 48.626 0.00000 -0.00000 0 
21.383 48.626 0.00000 -0.00000 0 
23.028 48.626 0.15626 0.43570 2 
24.673 48.626 0.31253 0.87140 2 
26.318 48.626 9.44363 1.03408 2 
27.963 48.626 9.29800 0.98408 2 
29.607 48.626 9.57500 1.01510 2 
31.252 48.626 9.45438 0.92438 2 
32.897 48.626 9.47467 1.00968 2 
34.542 48.626 9.70703 1.08398 2 
36.187 48.626 9.73601 1.00038 2 
37.832 48.626 9.69552 0.96428 2 
39.477 48.626 9.87028 0.93194 2 
41.121 48.626 9.59244 1.27571 2 
42.766 48.626 9.55191 0.88555 2 
44.411 48.626 9.76746 0.91675 2 
46.056 48.626 9.82929 1.10373 2 
47.701 48.626 9.55708 0.98198 2 
49.346 48.626 9.89951 1.10808 2 
50.991 48.626 9.72353 1.31131 2 
52.636 48.626 9.91063 1.10156 2 
54.280 48.626 9.89970 1.05238 2 
55.925 48.626 9.95731 1.07069 2 
57.570 48.626 10.14940 1.02015 2 
59.215 48.626 10.07007 0.94593 2 
60.860 48.626 10.22111 1.10071 2 
62.505 48.626 10.06359 1.23814 2 
64.150 48.626 9.98454 1.30370 2 
65.794 48.626 10.20565 1.01948 2 
67.439 48.626 10.60540 1.01130 2 
69.084 48.626 10.43562 1.19513 2 
70.729 48.626 10.23201 0.99058 2 
72.374 48.626 10.37095 0.98556 2 
74.019 48.626 10.29195 1.11018 2 
75.664 48.626 10.58517 1.21873 2 
77.308 48.626 10.82540 1.03806 2 
78.953 48.626 10.64549 0.94670 2 
80.598 48.626 10.54406 0.95248 2 
82.243 48.626 10.49746 0.98091 2 
83.888 48.626 10.44905 1.06388 2 
85.533 48.626 10.80645 1.18303 2 
87.178 48.626 10.92789 1.03931 2 
88.822 48.626 10.65808 0.83699 2 
90.467 48.626 10.75446 0.88826 2 
92.112 48.626 10.98299 0.67729 2 
93.757 48.626 10.92576 1.08892 2 
95.402 48.626 10.80126 0.98266 2 
97.047 48.626 11.27512 0.65369 2 
98.692 48.626 11.12256 0.26258 2 
100.336 48.626 5.56128 0.13129 2 
101.981 48.626 0.00000 -0.00000 0 
103.626 48.626 0.00000 -0.00000 0 
105.271 48.626 0.00000 -0.00000 0 
106.916 48.626 3.92667 0.25603 2 
108.561 48.626 7.85334 0.51205 2 
110.206 48.626 11.74797 0.36880 2 
111.850 48.626 11.03354 0.39882 2 
113.495 48.626 11.29491 0.53559 2 
115.140 48.626 11.20621 0.31155 2 
116.785 48.626 11.11182 0.39051 2 
118.430 48.626 11.31070 0.16152 2 
120.075 48.626 11.02516 0.13820 2 
121.720 48.626 11.13212 0.31787 2 
123.364 48.626 11.22424 0.02862 2 
125.009 48.626 11.35626 -0.41424 2 
126.654 48.626 11.18247 -0.22953 2 
128.299 48.626 11.47968 -0.40097 2 
129.944 48.626 10.94700 -0.33738 2 
131.589 48.626 10.88126 -0.29714 2 
133.234 48.626 11.05467 -0.68017 2 
134.879 48.626 10.91824 -0.60101 2 
136.523 48.626 11.31649 -0.52898 2 
138.168 48.626 11.05122 -0.64001 2 
139.813 48.626 10.83368 -0.95481 2 
141.458 48.626 10.68456 -0.96457 2 
143.103 48.626 10.61959 -0.97655 2 
144.748 48.626 10.85779 -0.69570 2 
146.393 48.626 10.49455 -0.47363 2 
148.037 48.626 10.40780 -0.68227 2 
149.682 48.626 10.73253 -0.97769 2 
151.327 48.626 10.40458 -0.77709 2 
152.972 48.626 0.00000 -0.00000 0 
-13.159 46.981 0.00000 -0.00000 0 
-11.514 46.981 9.81839 0.30259 2 
-9.869 46.981 9.22304 0.42455 2 
-8.224 46.981 9.14725 0.45071 2 
-6.579 46.981 9.03753 0.60321 2 
-4.935 46.981 9.06806 0.56172 2 
-3.290 46.981 8.98294 0.56517 2 
-1.645 46.981 9.00167 0.44492 2 
0.000 46.981 9.24067 0.67358 2 
1.645 46.981 9.64997 0.43919 2 
3.290 46.981 0.00000 -0.00000 0 
4.935 46.981 0.00000 -0.00000 0 
6.579 46.981 0.00000 -0.00000 0 
8.224 46.981 0.00000 -0.00000 0 
9.869 46.981 0.00000 -0.00000 0 
11.514 46.981 0.00000 -0.00000 0 
13.159 46.981 0.00000 -0.00000 0 
14.804 46.981 0.00000 -0.00000 0 
16.449 46.981 0.00000 -0.00000 0 
18.093 46.981 0.00000 -0.00000 0 
19.738 46.981 0.00000 -0.00000 0 
21.383 46.981 0.00000 -0.00000 0 
23.028 46.981 0.89586 0.72377 2 
24.673 46.981 3.92916 0.89002 2 
26.318 46.981 9.83950 0.78683 2 
27.963 46.981 9.18158 0.86403 2 
29.607 46.981 9.61923 1.07832 2 
31.252 46.981 9.30459 1.13916 2 
32.897 46.981 9.56229 0.99942 2 
34.542 46.981 9.61098 1.02942 2 
36.187 46.981 9.59739 1.14787 2 
37.832 46.981 9.66854 1.00091 2 
39.477 46.981 9.73068 1.00448 2 
41.121 46.981 9.65527 1.14145 2 
42.766 46.981 9.63154 0.98272 2 
44.411 46.981 9.88201 1.15698 2 
46.056 46.981 9.89105 1.06690 2 
47.701 46.981 9.85281 1.13771 2 
49.346 46.981 9.73174 1.06991 2 
50.991 46.981 9.68386 1.15354 2 
52.636 46.981 9.92346 0.98682 2 
54.280 46.981 9.78124 1.01740 2 
55.925 46.981 9.77882 1.28993 2 
57.570 46.981 10.09363 0.98776 2 
59.215 46.981 10.02667 0.92666 2 
60.860 46.981 10.29766 1.19645 2 
62.505 46.981 9.84076 1.34166 2 
64.150 46.981 10.13041 1.31780 2 
65.794 46.981 10.38281 1.33239 2 
67.439 46.981 10.46725 1.29901 2 
69.084 46.981 10.30562 1.12890 2 
70.729 46.981 10.66617 1.23293 2 
72.374 46.981 10.78181 1.04421 2 
74.019 46.981 10.48918 1.26579 2 
75.664 46.981 10.53422 1.30269 2 
77.308 46.981 10.61923 1.19537 2 
78.953 46.981 10.47478 1.08436 2 
80.598 46.981 10.49095 1.22167 2 
82.243 46.981 10.80405 1.16476 2 
83.888 46.981 10.67575 1.00241 2 
85.533 46.981 10.86642 1.07242 2 
87.178 46.981 11.01050 0.90687 2 
88.822 46.981 10.91893 0.90788 2 
90.467 46.981 10.87935 0.96930 2 
92.112 46.981 10.98811 0.67576 2 
93.757 46.981 11.03215 0.93896 2 
95.402 46.981 10.89384 0.71179 2 
97.047 46.981 11.26654 0.92835 2 
98.692 46.981 11.04575 1.22393 2 
100.336 46.981 5.52287 0.61196 2 
101.981 46.981 0.00000 -0.00000 0 
103.626 46.981 0.00000 -0.00000 0 
105.271 46.981 0.00000 -0.00000 0 
106.916 46.981 3.73949 0.12073 2 
108.561 46.981 7.47898 0.24147 2 
110.206 46.981 11.66379 0.44680 2 
111.850 46.981 10.86397 0.42137 2 
113.495 46.981 11.33863 0.42020 2 
115.140 46.981 11.00227 0.12647 2 
116.785 46.981 11.19374 0.32357 2 
118.430 46.981 11.41104 0.09956 2 
120.075 46.981 11.20421 -0.19710 2 
121.720 46.981 11.24622 -0.07579 2 
123.364 46.981 11.38725 -0.32947 2 
125.009 46.981 11.56460 -0.30591 2 
126.654 46.981 11.15299 -0.35574 2 
128.299 46.981 11.18778 -0.63840 2 
129.944 46.981 11.40962 -0.56895 2 
131.589 46.981 11.12072 -0.60122 2 
133.234 46.981 11.19501 -0.66104 2 
134.879 46.981 11.11131 -0.76359 2 
136.523 46.981 11.14238 -1.09830 2 
138.168 46.981 11.08325 -0.57478 2 
139.813 46.981 11.08912 -0.87761 2 
141.458 46.981 10.88421 -0.76815 2 
143.103 46.981 10.78800 -0.86886 2 
144.748 46.981 10.91650 -1.07262 2 
146.393 46.981 10.63806 -1.23173 2 
148.037 46.981 10.38909 -1.20610 2 
149.682 46.981 10.46891 -0.94603 2 
151.327 46.981 10.35409 -0.76029 2 
152.972 46.981 0.00000 -0.00000 0 
-13.159 45.336 0.00000 -0.00000 0 
-11.514 45.336 9.51228 0.39457 2 
-9.869 45.336 9.09062 0.39854 2 
-8.224 45.336 9.11693 0.27718 2 
-6.579 45.336 9.25701 0.49236 2 
-4.935 45.336 9.24015 0.39027 2 
-3.290 45.336 9.21941 0.46666 2 
-1.645 45.336 9.27938 0.60765 2 
0.000 45.336 9.22971 0.75064 2 
1.645 45.336 9.24284 0.82530 2 
3.290 45.336 2.34176 0.14722 2 
4.935 45.336 0.00000 -0.00000 0 
6.579 45.336 0.00000 -0.00000 0 
8.224 45.336 0.00000 -0.00000 0 
9.869 45.336 0.00000 -0.00000 0 
11.514 45.336 0.00000 -0.00000 0 
13.159 45.336 0.00000 -0.00000 0 
14.804 45.336 0.00000 -0.00000 0 
16.449 45.336 0.00000 -0.00000 0 
18.093 45.336 0.00000 -0.00000 0 
19.738 45.336 0.00000 -0.00000 0 
21.383 45.336 0.00000 -0.00000 0 
23.028 45.336 1.63546 1.01183 2 
24.673 45.336 5.80246 1.10625 2 
26.318 45.336 9.96946 1.20066 2 
27.963 45.336 9.14402 1.04015 2 
29.607 45.336 9.42278 1.07777 2 
31.252 45.336 9.27357 1.19223 2 
32.897 45.336 9.50705 1.25682 2 
34.542 45.336 9.46449 1.09372 2 
36.187 45.336 9.45022 1.15296 2 
37.832 45.336 9.49211 1.04821 2 
39.477 45.336 9.56871 1.39251 2 
41.121 45.336 9.79056 1.35365 2 
42.766 45.336 9.76230 1.00560 2 
44.411 45.336 9.78612 1.14690 2 
46.056 45.336 9.85159 1.20727 2 
47.701 45.336 10.01954 1.34817 2 
49.346 45.336 9.73716 1.10279 2 
50.991 45.336 9.69823 1.19958 2 
52.636 45.336 9.70062 0.99119 2 
54.280 45.336 9.78406 0.98419 2 
55.925 45.336 9.85917 1.18786 2 
57.570 45.336 10.26654 1.18870 2 
59.215 45.336 9.90048 1.19769 2 
60.860 45.336 10.02052 1.22256 2 
62.505 45.336 10.06066 1.12404 2 
64.150 45.336 10.24117 0.96614 2 
65.794 45.336 10.43252 1.11665 2 
67.439 45.336 10.22658 0.91241 2 
69.084 45.336 10.26164 1.20709 2 
70.729 45.336 10.32759 1.27127 2 
72.374 45.336 10.63288 0.99279 2 
74.019 45.336 10.55207 1.07948 2 
75.664 45.336 10.33236 1.39900 2 
77.308 45.336 10.41306 1.35268 2 
78.953 45.336 10.83319 1.27125 2 
80.598 45.336 10.47589 1.13441 2 
82.243 45.336 10.59737 1.15942 2 
83.888 45.336 10.45118 1.30853 2 
85.533 45.336 10.90085 0.88508 2 
87.178 45.336 11.04040 0.90646 2 
88.822 45.336 10.88420 1.34763 2 
90.467 45.336 10.76190 1.10135 2 
92.112 45.336 10.99729 0.90953 2 
93.757 45.336 11.02223 0.92187 2 
95.402 45.336 11.05875 0.99706 2 
97.047 45.336 11.27335 1.23457 2 
98.692 45.336 11.18544 1.16098 2 
100.336 45.336 10.63588 0.74527 2 
101.981 45.336 0.81663 0.20080 2 
103.626 45.336 0.00000 -0.00000 0 
105.271 45.336 0.00000 -0.00000 0 
106.916 45.336 3.58164 0.17012 2 
108.561 45.336 7.16329 0.34024 2 
110.206 45.336 12.09082 0.13546 2 
111.850 45.336 11.25331 0.54747 2 
113.495 45.336 11.58724 0.37899 2 
115.140 45.336 11.19960 0.44029 2 
116.785 45.336 11.17247 0.38793 2 
118.430 45.336 11.46889 0.03382 2 
120.075 45.336 11.24462 -0.17137 2 
121.720 45.336 11.29821 0.00160 2 
123.364 45.336 11.46947 -0.21668 2 
125.009 45.336 11.51254 -0.17578 2 
126.654 45.336 11.09197 -0.26092 2 
128.299 45.336 11.29022 -0.46747 2 
129.944 45.336 11.58077 -0.32499 2 
131.589 45.336 11.14017 -0.40793 2 
133.234 45.336 11.42489 -0.79337 2 
134.879 45.336 11.28942 -0.95143 2 
136.523 45.336 11.24634 -0.83286 2 
138.168 45.336 10.90395 -0.61269 2 
139.813 45.336 11.21430 -1.19328 2 
141.458 45.336 10.87729 -1.26050 2 
143.103 45.336 10.69184 -1.01703 2 
144.748 45.336 10.82266 -0.82312 2 
146.393 45.336 10.62130 -1.13780 2 
148.037 45.336 10.40260 -1.42520 2 
149.682 45.336 10.32142 -1.13998 2 
151.327 45.336 10.33590 -1.01927 2 
152.972 45.336 0.00000 -0.00000 0 
-13.159 43.692 0.00000 -0.00000 0 
-11.514 43.692 9.47235 0.27077 2 
-9.869 43.692 9.09848 0.44855 2 
-8.224 43.692 9.09374 0.56740 2 
-6.579 43.692 9.07725 0.56839 2 
-4.935 43.692 9.14777 0.35097 2 
-3.290 43.692 9.30474 0.51676 2 
-1.645 43.692 9.07338 0.67599 2 
0.000 43.692 9.06509 0.58809 2 
1.645 43.692 9.36704 0.58887 2 
3.290 43.692 4.68352 0.29444 2 
4.935 43.692 0.00000 -0.00000 0 
6.579 43.692 0.00000 -0.00000 0 
8.224 43.692 0.00000 -0.00000 0 
9.869 43.692 0.00000 -0.00000 0 
11.514 43.692 0.00000 -0.00000 0 
13.159 43.692 0.00000 -0.00000 0 
14.804 43.692 0.00000 -0.00000 0 
16.449 43.692 0.00000 -0.00000 0 
18.093 43.692 0.00000 -0.00000 0 
19.738 43.692 0.00000 -0.00000 0 
21.383 43.692 0.00000 -0.00000 0 
23.028 43.692 3.95994 0.69893 2 
24.673 43.692 7.91988 1.39785 2 
26.318 43.692 9.77377 1.25979 2 
27.963 43.692 9.21172 1.14347 2 
29.607 43.692 9.39556 1.15355 2 
31.252 43.692 9.26229 1.04244 2 
32.897 43.692 9.51810 1.08328 2 
34.542 43.692 9.54244 1.09016 2 
36.187 43.692 9.48052 1.12606 2 
37.832 43.692 9.49024 1.29985 2 
39.477 43.692 9.55681 1.15414 2 
41.121 43.692 9.94308 1.27593 2 
42.766 43.692 9.65714 1.13756 2 
44.411 43.692 9.61191 1.26187 2 
46.056 43.692 9.78969 1.19292 2 
47.701 43.692 9.71595 1.10855 2 
49.346 43.692 9.79362 1.33874 2 
50.991 43.692 9.78298 1.22108 2 
52.636 43.692 9.66453 1.10832 2 
54.280 43.692 9.92160 1.26598 2 
55.925 43.692 10.24620 0.93322 2 
57.570 43.692 10.25484 1.04378 2 
59.215 43.692 10.00181 1.39033 2 
60.860 43.692 9.92794 1.35036 2 
62.505 43.692 10.19894 1.35744 2 
64.150 43.692 10.05781 1.10874 2 
65.794 43.692 10.17936 1.29084 2 
67.439 43.692 10.18667 1.19180 2 
69.084 43.692 10.34283 1.14111 2 
70.729 43.692 10.38294 1.20554 2 
72.374 43.692 10.48395 0.94137 2 
74.019 43.692 10.38494 1.01239 2 
75.664 43.692 10.55303 1.50668 2 
77.308 43.692 10.67671 1.38477 2 
78.953 43.692 10.78240 1.47634 2 
80.598 43.692 10.90685 0.95970 2 
82.243 43.692 10.75839 0.88448 2 
83.888 43.692 10.80248 1.16995 2 
85.533 43.692 10.89534 1.38600 2 
87.178 43.692 10.73758 1.29344 2 
88.822 43.692 10.78899 0.70075 2 
90.467 43.692 10.71504 1.03247 2 
92.112 43.692 11.15572 1.24361 2 
93.757 43.692 10.96927 1.21320 2 
95.402 43.692 11.06561 1.12420 2 
97.047 43.692 10.76581 1.22646 2 
98.692 43.692 11.06269 1.10232 2 
100.336 43.692 11.70281 1.26039 2 
101.981 43.692 3.14701 0.84809 2 
103.626 43.692 0.00000 -0.00000 0 
105.271 43.692 0.00000 -0.00000 0 
106.916 43.692 3.40041 0.25762 2 
108.561 43.692 6.80081 0.51523 2 
110.206 43.692 11.78161 0.54947 2 
111.850 43.692 11.37859 0.73245 2 
113.495 43.692 11.48642 0.29546 2 
115.140 43.692 11.09318 0.46175 2 
116.785 43.692 11.26482 0.47629 2 
118.430 43.692 11.58985 0.02570 2 
120.075 43.692 11.66550 0.07094 2 
121.720 43.692 11.31834 0.29274 2 
123.364 43.692 11.47088 0.06161 2 
125.009 43.692 11.66600 0.13831 2 
126.654 43.692 11.21166 -0.06789 2 
128.299 43.692 11.27257 -0.56429 2 
129.944 43.692 11.25348 -0.32676 2 
131.589 43.692 11.15777 -0.34478 2 
133.234 43.692 11.26865 -0.77843 2 
134.879 43.692 11.28451 -0.59503 2 
136.523 43.692 11.39882 -0.77606 2 
138.168 43.692 11.19595 -0.87867 2 
139.813 43.692 11.08280 -0.99611 2 
141.458 43.692 10.95551 -1.21031 2 
143.103 43.692 10.87422 -1.28220 2 
144.748 43.692 10.78211 -0.94098 2 
146.393 43.692 10.77314 -0.88074 2 
148.037 43.692 10.19736 -1.21955 2 
149.682 43.692 10.38232 -1.18598 2 
151.327 43.692 10.33476 -0.90339 2 
152.972 43.692 0.00000 -0.00000 0 
-13.159 42.047 0.00000 -0.00000 0 
-11.514 42.047 9.49008 0.33381 2 
-9.869 42.047 9.20896 0.44060 2 
-8.224 42.047 9.12488 0.54339 2 
-6.579 42.047 9.14997 0.46712 2 
-4.935 42.047 9.15147 0.52353 2 
-3.290 42.047 8.96166 0.68603 2 
-1.645 42.047 9.11321 0.64435 2 
0.000 42.047 9.18134 0.40228 2 
1.645 42.047 9.53295 0.49849 2 
3.290 42.047 4.52718 -0.14221 2 
4.935 42.047 0.00000 -0.00000 0 
6.579 42.047 0.00000 -0.00000 0 
8.224 42.047 0.00000 -0.00000 0 
9.869 42.047 0.00000 -0.00000 0 
11.514 42.047 0.00000 -0.00000 0 
13.159 42.047 0.00000 -0.00000 0 
14.804 42.047 0.00000 -0.00000 0 
16.449 42.047 0.00000 -0.00000 0 
18.093 42.047 0.00000 -0.00000 0 
19.738 42.047 0.00000 -0.00000 0 
21.383 42.047 0.00000 -0.00000 0 
23.028 42.047 5.12218 0.54247 2 
24.673 42.047 10.24437 1.08494 2 
26.318 42.047 9.10175 1.02256 2 
27.963 42.047 9.32302 1.02314 2 
29.607 42.047 9.41741 1.05198 2 
31.252 42.047 9.42615 0.88473 2 
32.897 42.047 9.76670 1.15124 2 
34.542 42.047 9.45608 1.17265 2 
36.187 42.047 9.31672 1.05305 2 
37.832 42.047 9.31379 1.08773 2 
39.477 42.047 9.52854 1.00595 2 
41.121 42.047 9.44874 1.20157 2 
42.766 42.047 9.50849 1.23883 2 
44.411 42.047 9.63614 1.22861 2 
46.056 42.047 9.70673 1.20978 2 
47.701 42.047 9.49224 1.22220 2 
49.346 42.047 9.58363 1.11394 2 
50.991 42.047 9.86773 1.24259 2 
52.636 42.047 9.56626 1.10277 2 
54.280 42.047 9.96656 1.34738 2 
55.925 42.047 10.22056 1.18040 2 
57.570 42.047 10.02004 1.18074 2 
59.215 42.047 10.06359 1.39273 2 
60.860 42.047 10.08767 1.40424 2 
62.505 42.047 10.16005 1.48936 2 
64.150 42.047 10.35321 1.26768 2 
65.794 42.047 10.37111 1.29158 2 
67.439 42.047 10.14676 1.47119 2 
69.084 42.047 10.39161 1.27513 2 
70.729 42.047 10.41547 1.19680 2 
72.374 42.047 10.32147 1.22015 2 
74.019 42.047 10.28816 1.29626 2 
75.664 42.047 10.51316 1.25124 2 
77.308 42.047 10.69498 1.19614 2 
78.953 42.047 10.54719 1.24125 2 
80.598 42.047 10.75633 1.06131 2 
82.243 42.047 10.80597 1.15856 2 
83.888 42.047 10.94479 1.22107 2 
85.533 42.047 10.82550 1.35833 2 
87.178 42.047 10.72622 1.30622 2 
88.822 42.047 10.93260 1.07221 2 
90.467 42.047 10.72330 1.14089 2 
92.112 42.047 11.01784 0.91044 2 
93.757 42.047 10.87768 1.09822 2 
95.402 42.047 11.01293 1.18164 2 
97.047 42.047 11.16038 0.85442 2 
98.692 42.047 10.88762 0.88077 2 
100.336 42.047 11.60847 0.92987 2 
101.981 42.047 5.47740 1.49538 2 
103.626 42.047 0.00000 -0.00000 0 
105.271 42.047 0.00000 -0.00000 0 
106.916 42.047 3.67454 0.35623 2 
108.561 42.047 7.34908 0.71246 2 
110.206 42.047 12.02067 0.68537 2 
111.850 42.047 11.11758 0.66996 2 
113.495 42.047 11.45189 0.58159 2 
115.140 42.047 11.27433 0.38619 2 
116.785 42.047 11.62584 0.30743 2 
118.430 42.047 11.44288 0.24861 2 
120.075 42.047 11.46759 0.35345 2 
121.720 42.047 11.56442 0.19271 2 
123.364 42.047 11.31317 0.03041 2 
125.009 42.047 11.49915 0.12422 2 
126.654 42.047 11.54403 0.05521 2 
128.299 42.047 11.51993 -0.31530 2 
129.944 42.047 11.48528 -0.59604 2 
131.589 42.047 11.56281 -0.63571 2 
133.234 42.047 11.47714 -0.43965 2 
134.879 42.047 11.29287 -0.69109 2 
136.523 42.047 11.21611 -0.94701 2 
138.168 42.047 11.03756 -1.02459 2 
139.813 42.047 11.15111 -1.01263 2 
141.458 42.047 10.86850 -1.29109 2 
143.103 42.047 11.04775 -1.33311 2 
144.748 42.047 10.93760 -1.20269 2 
146.393 42.047 10.76526 -1.27329 2 
148.037 42.047 10.38944 -1.18098 2 
149.682 42.047 10.23062 -1.15095 2 
151.327 42.047 10.50948 -1.24922 2 
152.972 42.047 0.00000 -0.00000 0 
-13.159 40.402 0.00000 -0.00000 0 
-11.514 40.402 9.50780 0.39685 2 
-9.869 40.402 9.14974 0.18744 2 
-8.224 40.402 9.10588 0.19120 2 
-6.579 40.402 9.05916 0.44450 2 
-4.935 40.402 9.14411 0.52002 2 
-3.290 40.402 9.01218 0.48452 2 
-1.645 40.402 9.24238 0.46904 2 
0.000 40.402 9.20885 0.59589 2 
1.645 40.402 9.42530 0.50307 2 
3.290 40.402 9.38568 0.44267 2 
4.935 40.402 0.00000 -0.00000 0 
6.579 40.402 0.00000 -0.00000 0 
8.224 40.402 0.00000 -0.00000 0 
9.869 40.402 0.00000 -0.00000 0 
11.514 40.402 0.00000 -0.00000 0 
13.159 40.402 0.00000 -0.00000 0 
14.804 40.402 0.00000 -0.00000 0 
16.449 40.402 0.00000 -0.00000 0 
18.093 40.402 0.00000 -0.00000 0 
19.738 40.402 0.00000 -0.00000 0 
21.383 40.402 0.00000 -0.00000 0 
23.028 40.402 5.07119 0.53071 2 
24.673 40.402 10.14238 1.06143 2 
26.318 40.402 8.95952 1.22542 2 
27.963 40.402 9.52161 1.10661 2 
29.607 40.402 9.40463 1.45519 2 
31.252 40.402 9.53612 1.23221 2 
32.897 40.402 9.37401 1.18275 2 
34.542 40.402 9.36784 1.18363 2 
36.187 40.402 9.50885 1.22415 2 
37.832 40.402 9.40596 1.29662 2 
39.477 40.402 9.52965 1.35633 2 
41.121 40.402 9.56409 1.18739 2 
42.766 40.402 9.61327 1.21180 2 
44.411 40.402 9.74693 1.23590 2 
46.056 40.402 9.88441 1.04438 2 
47.701 40.402 9.52787 1.25095 2 
49.346 40.402 9.67158 1.22927 2 
50.991 40.402 9.78452 1.26781 2 
52.636 40.402 9.85072 1.39461 2 
54.280 40.402 9.99062 1.25460 2 
55.925 40.402 10.15388 1.14694 2 
57.570 40.402 10.05134 1.49777 2 
59.215 40.402 10.01344 1.35384 2 
60.860 40.402 10.02891 1.22689 2 
62.505 40.402 10.00944 1.20722 2 
64.150 40.402 10.53031 1.35193 2 
65.794 40.402 10.49319 1.02148 2 
67.439 40.402 10.43123 1.32404 2 
69.084 40.402 10.36913 1.32063 2 
70.729 40.402 10.31098 1.43882 2 
72.374 40.402 10.36813 1.31798 2 
74.019 40.402 10.57931 1.32918 2 
75.664 40.402 10.62466 1.18836 2 
77.308 40.402 10.54021 1.39019 2 
78.953 40.402 10.48429 1.53456 2 
80.598 40.402 10.67793 1.17593 2 
82.243 40.402 10.89889 1.43919 2 
83.888 40.402 10.92798 1.42279 2 