TITLE = "B00049"
VARIABLES = "X [mm]", "Y [mm]", "Vx [m/s]", "Vy [m/s]", "Flag"
ZONE T="Frame 1", I=102, J=77, F=POINT
-13.159 53.561 0.00000 -0.00000 0 
-11.514 53.561 9.09342 0.04990 1 
-9.869 53.561 9.12236 0.05382 1 
-8.224 53.561 9.14922 0.05830 2 
-6.579 53.561 9.17608 0.06277 2 
-4.935 53.561 9.20294 0.06725 2 
-3.290 53.561 9.22980 0.07172 2 
-1.645 53.561 9.25665 0.07619 1 
0.000 53.561 4.74818 0.06896 2 
1.645 53.561 0.23972 0.06172 1 
3.290 53.561 0.00000 -0.00000 0 
4.935 53.561 0.00000 -0.00000 0 
6.579 53.561 0.00000 -0.00000 0 
8.224 53.561 0.00000 -0.00000 0 
9.869 53.561 0.00000 -0.00000 0 
11.514 53.561 0.00000 -0.00000 0 
13.159 53.561 0.00000 -0.00000 0 
14.804 53.561 0.00000 -0.00000 0 
16.449 53.561 0.00000 -0.00000 0 
18.093 53.561 0.00000 -0.00000 0 
19.738 53.561 0.00000 -0.00000 0 
21.383 53.561 0.00000 -0.00000 0 
23.028 53.561 3.14235 0.17982 2 
24.673 53.561 6.28471 0.35963 2 
26.318 53.561 9.42706 0.53945 2 
27.963 53.561 9.48233 0.45467 2 
29.607 53.561 9.50475 0.46055 2 
31.252 53.561 9.52717 0.46642 2 
32.897 53.561 9.54959 0.47230 2 
34.542 53.561 9.57200 0.47818 2 
36.187 53.561 9.59442 0.48405 2 
37.832 53.561 9.61684 0.48993 2 
39.477 53.561 9.63926 0.49581 2 
41.121 53.561 9.66168 0.50168 2 
42.766 53.561 9.68410 0.50756 2 
44.411 53.561 9.70652 0.51344 2 
46.056 53.561 9.72894 0.51931 2 
47.701 53.561 9.75136 0.52519 2 
49.346 53.561 9.77378 0.53106 2 
50.991 53.561 9.79620 0.53694 2 
52.636 53.561 9.81861 0.54282 2 
54.280 53.561 9.91990 0.46305 2 
55.925 53.561 10.02118 0.38329 2 
57.570 53.561 10.03717 0.40000 2 
59.215 53.561 10.05317 0.41672 2 
60.860 53.561 10.06916 0.43344 2 
62.505 53.561 10.08516 0.45016 2 
64.150 53.561 10.10115 0.46688 2 
65.794 53.561 10.11715 0.48359 2 
67.439 53.561 10.13315 0.50031 2 
69.084 53.561 10.14914 0.51703 2 
70.729 53.561 10.09820 0.55654 2 
72.374 53.561 10.04726 0.59605 2 
74.019 53.561 9.99632 0.63556 2 
75.664 53.561 9.94539 0.67507 2 
77.308 53.561 9.67856 0.58826 2 
78.953 53.561 9.71387 0.62900 2 
80.598 53.561 9.74917 0.66975 2 
82.243 53.561 9.84912 0.58958 2 
83.888 53.561 9.94907 0.50942 2 
85.533 53.561 10.04901 0.42925 2 
87.178 53.561 10.14896 0.34908 2 
88.822 53.561 10.24890 0.26892 2 
90.467 53.561 10.34885 0.18875 2 
92.112 53.561 10.44879 0.10859 2 
93.757 53.561 10.54874 0.02842 2 
95.402 53.561 10.64868 -0.05175 2 
97.047 53.561 10.74863 -0.13191 2 
98.692 53.561 9.50916 0.01844 2 
100.336 53.561 0.40521 0.02409 2 
101.981 53.561 0.00000 -0.00000 0 
103.626 53.561 0.00000 -0.00000 0 
105.271 53.561 0.00000 -0.00000 0 
106.916 53.561 0.03563 0.10802 2 
108.561 53.561 11.23276 0.25786 2 
110.206 53.561 11.10539 0.33897 2 
111.850 53.561 11.13970 0.29879 2 
113.495 53.561 11.06937 0.30508 2 
115.140 53.561 11.23752 0.26507 2 
116.785 53.561 11.12213 0.21117 2 
118.430 53.561 11.10569 0.18124 2 
120.075 53.561 11.06001 0.26519 2 
121.720 53.561 10.96453 0.23595 2 
123.364 53.561 11.05592 0.14323 2 
125.009 53.561 10.98813 0.24013 2 
126.654 53.561 11.06445 0.20111 2 
128.299 53.561 10.98665 0.21107 2 
129.944 53.561 10.86942 0.22715 2 
131.589 53.561 10.79962 0.00817 2 
133.234 53.561 10.93603 -0.10479 2 
134.879 53.561 10.85094 -0.01357 2 
136.523 53.561 10.87529 0.14020 2 
138.168 53.561 10.56292 0.15556 2 
139.813 53.561 10.45282 -0.07838 2 
141.458 53.561 10.53445 -0.12892 2 
143.103 53.561 11.04692 0.04590 2 
144.748 53.561 10.81868 0.13117 2 
146.393 53.561 10.59044 0.21643 2 
148.037 53.561 10.85305 0.02492 2 
149.682 53.561 11.02812 -0.00773 2 
151.327 53.561 10.82886 -0.03787 2 
152.972 53.561 0.00000 -0.00000 0 
-13.159 51.916 0.00000 -0.00000 0 
-11.514 51.916 9.22202 0.37480 2 
-9.869 51.916 9.21278 0.23467 2 
-8.224 51.916 9.35132 0.40286 2 
-6.579 51.916 9.58035 0.69639 2 
-4.935 51.916 9.56280 0.56099 2 
-3.290 51.916 9.53471 0.70780 2 
-1.645 51.916 9.43308 0.70773 2 
0.000 51.916 6.43650 0.36280 2 
1.645 51.916 3.43992 0.01788 2 
3.290 51.916 0.00000 -0.00000 0 
4.935 51.916 0.00000 -0.00000 0 
6.579 51.916 0.00000 -0.00000 0 
8.224 51.916 0.00000 -0.00000 0 
9.869 51.916 0.00000 -0.00000 0 
11.514 51.916 0.00000 -0.00000 0 
13.159 51.916 0.00000 -0.00000 0 
14.804 51.916 0.00000 -0.00000 0 
16.449 51.916 0.00000 -0.00000 0 
18.093 51.916 0.00000 -0.00000 0 
19.738 51.916 0.00000 -0.00000 0 
21.383 51.916 0.00000 -0.00000 0 
23.028 51.916 5.95918 0.67011 2 
24.673 51.916 8.69505 0.84068 2 
26.318 51.916 9.26872 0.87516 2 
27.963 51.916 9.41090 0.69625 2 
29.607 51.916 9.55400 0.73118 2 
31.252 51.916 9.51847 0.83226 2 
32.897 51.916 9.77460 0.97483 2 
34.542 51.916 9.57183 0.74077 2 
36.187 51.916 9.78177 0.87156 2 
37.832 51.916 9.68900 1.05362 2 
39.477 51.916 9.88628 1.35059 2 
41.121 51.916 9.97162 1.12236 2 
42.766 51.916 9.95956 1.12070 2 
44.411 51.916 9.94750 1.11904 2 
46.056 51.916 9.93544 1.11739 2 
47.701 51.916 10.16409 1.12216 2 
49.346 51.916 10.17564 1.18941 2 
50.991 51.916 10.18720 1.25666 2 
52.636 51.916 10.06708 1.53988 2 
54.280 51.916 10.15212 0.92047 2 
55.925 51.916 9.99822 0.79732 2 
57.570 51.916 10.02031 0.72059 2 
59.215 51.916 10.55598 1.45119 2 
60.860 51.916 10.33809 1.42459 2 
62.505 51.916 10.72725 1.24982 2 
64.150 51.916 10.62464 1.25890 2 
65.794 51.916 10.64754 1.35456 2 
67.439 51.916 10.24242 0.73708 2 
69.084 51.916 10.25606 0.76789 2 
70.729 51.916 10.74615 1.43276 2 
72.374 51.916 10.67365 1.37616 2 
74.019 51.916 10.81659 1.32672 2 
75.664 51.916 10.27995 0.86581 2 
77.308 51.916 11.14324 1.26445 2 
78.953 51.916 11.24959 1.34048 2 
80.598 51.916 11.39534 1.28266 2 
82.243 51.916 11.09000 1.51747 2 
83.888 51.916 10.77656 1.19526 2 
85.533 51.916 10.97249 1.16113 2 
87.178 51.916 11.03473 1.04647 2 
88.822 51.916 10.78245 1.11027 2 
90.467 51.916 10.85817 0.98893 2 
92.112 51.916 10.91508 1.02589 2 
93.757 51.916 11.29532 1.22280 2 
95.402 51.916 11.08965 1.37100 2 
97.047 51.916 10.95102 1.10313 2 
98.692 51.916 10.65043 1.19443 2 
100.336 51.916 3.01010 0.11134 2 
101.981 51.916 0.00000 -0.00000 0 
103.626 51.916 0.00000 -0.00000 0 
105.271 51.916 0.00000 -0.00000 0 
106.916 51.916 5.38119 0.21538 2 
108.561 51.916 10.76238 0.43076 2 
110.206 51.916 11.02237 0.31532 2 
111.850 51.916 11.15763 0.89993 2 
113.495 51.916 10.87947 0.48352 2 
115.140 51.916 11.16626 0.32018 2 
116.785 51.916 11.22221 0.26839 2 
118.430 51.916 11.16966 0.31112 2 
120.075 51.916 10.90541 0.33563 2 
121.720 51.916 10.87269 0.29791 2 
123.364 51.916 11.04573 0.27250 2 
125.009 51.916 10.99938 0.11661 2 
126.654 51.916 10.90300 0.04289 2 
128.299 51.916 10.80687 -0.18267 2 
129.944 51.916 11.02138 -0.11714 2 
131.589 51.916 10.61055 -0.10101 2 
133.234 51.916 10.99867 -0.08580 2 
134.879 51.916 10.74609 0.02912 2 
136.523 51.916 10.83283 0.19492 2 
138.168 51.916 10.60297 -0.03394 2 
139.813 51.916 10.62853 -0.06215 2 
141.458 51.916 10.80152 -0.10571 2 
143.103 51.916 10.75919 -0.23380 2 
144.748 51.916 10.67556 0.09947 2 
146.393 51.916 10.79339 0.07715 2 
148.037 51.916 10.93587 -0.30853 2 
149.682 51.916 10.92227 -0.05097 2 
151.327 51.916 11.02188 -0.31883 2 
152.972 51.916 0.00000 -0.00000 0 
-13.159 50.271 0.00000 -0.00000 0 
-11.514 50.271 9.35062 0.69969 2 
-9.869 50.271 9.30320 0.41551 2 
-8.224 50.271 9.35125 0.45838 2 
-6.579 50.271 8.98554 0.60122 2 
-4.935 50.271 9.26972 0.48980 2 
-3.290 50.271 9.37204 0.59923 2 
-1.645 50.271 9.24824 0.53917 2 
0.000 50.271 9.57272 0.52238 2 
1.645 50.271 6.64012 -0.02596 2 
3.290 50.271 0.00000 -0.00000 0 
4.935 50.271 0.00000 -0.00000 0 
6.579 50.271 0.00000 -0.00000 0 
8.224 50.271 0.00000 -0.00000 0 
9.869 50.271 0.00000 -0.00000 0 
11.514 50.271 0.00000 -0.00000 0 
13.159 50.271 0.00000 -0.00000 0 
14.804 50.271 0.00000 -0.00000 0 
16.449 50.271 0.00000 -0.00000 0 
18.093 50.271 0.00000 -0.00000 0 
19.738 50.271 0.00000 -0.00000 0 
21.383 50.271 0.00000 -0.00000 0 
23.028 50.271 5.55270 0.66086 2 
24.673 50.271 11.10539 1.32173 2 
26.318 50.271 9.25177 0.79799 2 
27.963 50.271 9.19905 0.91571 2 
29.607 50.271 9.43721 0.98436 2 
31.252 50.271 9.42048 1.00873 2 
32.897 50.271 9.50517 0.83844 2 
34.542 50.271 9.57165 1.00336 2 
36.187 50.271 9.46556 1.03423 2 
37.832 50.271 9.78123 0.89136 2 
39.477 50.271 9.76882 1.15292 2 
41.121 50.271 9.51487 1.19144 2 
42.766 50.271 9.61368 1.12136 2 
44.411 50.271 9.81618 1.12142 2 
46.056 50.271 9.55363 1.16979 2 
47.701 50.271 9.94871 1.18417 2 
49.346 50.271 9.98898 1.04782 2 
50.991 50.271 9.84657 1.19123 2 
52.636 50.271 9.82984 1.12786 2 
54.280 50.271 9.81425 0.96576 2 
55.925 50.271 9.97527 1.21135 2 
57.570 50.271 10.00344 1.04118 2 
59.215 50.271 10.09888 1.13907 2 
60.860 50.271 10.16862 1.09565 2 
62.505 50.271 10.28875 1.26720 2 
64.150 50.271 10.23871 1.49758 2 
65.794 50.271 10.33193 1.37316 2 
67.439 50.271 10.35170 0.97384 2 
69.084 50.271 10.36298 1.01875 2 
70.729 50.271 10.43628 1.30334 2 
72.374 50.271 10.26422 0.86008 2 
74.019 50.271 10.23207 1.07078 2 
75.664 50.271 10.61452 1.05655 2 
77.308 50.271 10.24279 0.73707 2 
78.953 50.271 10.70954 1.09253 2 
80.598 50.271 10.50546 0.99668 2 
82.243 50.271 10.78818 1.11722 2 
83.888 50.271 10.62441 0.88240 2 
85.533 50.271 10.81050 0.91314 2 
87.178 50.271 10.77060 0.82728 2 
88.822 50.271 10.51123 0.76275 2 
90.467 50.271 10.71168 0.83364 2 
92.112 50.271 10.84420 0.75143 2 
93.757 50.271 10.91605 0.50428 2 
95.402 50.271 11.02076 0.92704 2 
97.047 50.271 10.82009 0.58368 2 
98.692 50.271 11.23000 0.39717 2 
100.336 50.271 5.61500 0.19858 2 
101.981 50.271 0.00000 -0.00000 0 
103.626 50.271 0.00000 -0.00000 0 
105.271 50.271 0.00000 -0.00000 0 
106.916 50.271 5.50544 0.30052 2 
108.561 50.271 11.01088 0.60105 2 
110.206 50.271 10.93935 0.29167 2 
111.850 50.271 11.18326 0.64638 2 
113.495 50.271 10.88952 0.36789 2 
115.140 50.271 11.04364 0.20213 2 
116.785 50.271 11.04980 0.11556 2 
118.430 50.271 11.29040 0.19391 2 
120.075 50.271 11.22837 0.29967 2 
121.720 50.271 11.11209 0.37280 2 
123.364 50.271 11.03554 0.40178 2 
125.009 50.271 11.24523 0.16966 2 
126.654 50.271 10.95915 0.01412 2 
128.299 50.271 10.79309 -0.16709 2 
129.944 50.271 11.05538 -0.05048 2 
131.589 50.271 11.09527 -0.32278 2 
133.234 50.271 10.87344 -0.13909 2 
134.879 50.271 10.87294 0.06472 2 
136.523 50.271 10.76084 -0.16735 2 
138.168 50.271 10.76417 -0.15135 2 
139.813 50.271 10.76750 -0.13535 2 
141.458 50.271 10.92433 -0.12233 2 
143.103 50.271 10.78983 0.02432 2 
144.748 50.271 10.81977 0.04067 2 
146.393 50.271 10.85050 -0.05514 2 
148.037 50.271 10.70499 -0.04218 2 
149.682 50.271 10.86896 -0.14555 2 
151.327 50.271 10.92354 -0.14418 2 
152.972 50.271 0.00000 -0.00000 0 
-13.159 48.626 0.00000 -0.00000 0 
-11.514 48.626 9.59330 0.62538 2 
-9.869 48.626 9.33181 0.60117 2 
-8.224 48.626 9.27690 0.52348 2 
-6.579 48.626 8.98601 0.38671 2 
-4.935 48.626 9.15490 0.45310 2 
-3.290 48.626 9.30466 0.55736 2 
-1.645 48.626 9.33375 0.54460 2 
0.000 48.626 9.58823 0.51704 2 
1.645 48.626 9.77920 0.17445 2 
3.290 48.626 0.00000 -0.00000 0 
4.935 48.626 0.00000 -0.00000 0 
6.579 48.626 0.00000 -0.00000 0 
8.224 48.626 0.00000 -0.00000 0 
9.869 48.626 0.00000 -0.00000 0 
11.514 48.626 0.00000 -0.00000 0 
13.159 48.626 0.00000 -0.00000 0 
14.804 48.626 0.00000 -0.00000 0 
16.449 48.626 0.00000 -0.00000 0 
18.093 48.626 0.00000 -0.00000 0 
19.738 48.626 0.00000 -0.00000 0 
21.383 48.626 0.00000 -0.00000 0 
23.028 48.626 4.96764 0.78836 2 
24.673 48.626 9.90917 1.14475 2 
26.318 48.626 9.65834 0.99259 2 
27.963 48.626 9.39034 0.99009 2 
29.607 48.626 9.63265 1.17704 2 
31.252 48.626 9.38093 1.08076 2 
32.897 48.626 9.32801 0.96411 2 
34.542 48.626 9.44647 1.05544 2 
36.187 48.626 9.60236 1.16004 2 
37.832 48.626 9.82414 0.97767 2 
39.477 48.626 9.78091 1.13334 2 
41.121 48.626 9.66814 0.99187 2 
42.766 48.626 9.61922 1.17165 2 
44.411 48.626 9.63819 1.30385 2 
46.056 48.626 9.76145 1.19469 2 
47.701 48.626 9.80388 1.20996 2 
49.346 48.626 9.85610 1.20684 2 
50.991 48.626 10.08075 1.16556 2 
52.636 48.626 9.93116 1.15251 2 
54.280 48.626 10.03890 0.91144 2 
55.925 48.626 9.98340 1.26657 2 
57.570 48.626 10.13772 1.14160 2 
59.215 48.626 10.32484 1.23203 2 
60.860 48.626 10.38623 1.16805 2 
62.505 48.626 10.43231 0.91310 2 
64.150 48.626 10.45178 0.85598 2 
65.794 48.626 10.45095 1.03993 2 
67.439 48.626 10.25852 1.22575 2 
69.084 48.626 10.43172 0.92762 2 
70.729 48.626 10.59137 1.34910 2 
72.374 48.626 10.48761 1.06899 2 
74.019 48.626 10.40738 1.15688 2 
75.664 48.626 10.48440 1.27866 2 
77.308 48.626 10.29178 1.17245 2 
78.953 48.626 10.44361 1.25798 2 
80.598 48.626 10.60038 1.18754 2 
82.243 48.626 10.89307 1.08303 2 
83.888 48.626 10.85009 0.93173 2 
85.533 48.626 10.72694 0.93706 2 
87.178 48.626 10.94930 0.96016 2 
88.822 48.626 10.77514 0.85971 2 
90.467 48.626 10.63132 1.24036 2 
92.112 48.626 10.85689 0.66690 2 
93.757 48.626 10.71942 0.65267 2 
95.402 48.626 11.15785 1.23500 2 
97.047 48.626 11.20702 1.15479 2 
98.692 48.626 11.09768 0.84709 2 
100.336 48.626 11.99506 1.14483 2 
101.981 48.626 0.00000 -0.00000 0 
103.626 48.626 0.00000 -0.00000 0 
105.271 48.626 0.00000 -0.00000 0 
106.916 48.626 5.67353 0.39959 2 
108.561 48.626 11.34706 0.79917 2 
110.206 48.626 11.06748 0.22665 2 
111.850 48.626 11.27552 0.49674 2 
113.495 48.626 11.34174 0.60395 2 
115.140 48.626 11.48211 0.56705 2 
116.785 48.626 10.92685 0.50035 2 
118.430 48.626 10.90174 0.33285 2 
120.075 48.626 11.22825 0.31011 2 
121.720 48.626 11.16977 0.26141 2 
123.364 48.626 11.07780 0.19849 2 
125.009 48.626 11.33134 0.14553 2 
126.654 48.626 11.10459 0.03874 2 
128.299 48.626 10.77931 -0.15151 2 
129.944 48.626 11.08939 0.01617 2 
131.589 48.626 10.95240 -0.23621 2 
133.234 48.626 10.73281 -0.18740 2 
134.879 48.626 10.91868 -0.16044 2 
136.523 48.626 10.76834 -0.46363 2 
138.168 48.626 10.87017 -0.33249 2 
139.813 48.626 10.97199 -0.20136 2 
141.458 48.626 10.80337 -0.28605 2 
143.103 48.626 11.00541 -0.11880 2 
144.748 48.626 10.96398 -0.01814 2 
146.393 48.626 10.83001 -0.24808 2 
148.037 48.626 10.77092 -0.20663 2 
149.682 48.626 10.77858 -0.28046 2 
151.327 48.626 10.89056 -0.11081 2 
152.972 48.626 0.00000 -0.00000 0 
-13.159 46.981 0.00000 -0.00000 0 
-11.514 46.981 9.39685 0.50017 2 
-9.869 46.981 9.14970 0.57056 2 
-8.224 46.981 9.20339 0.46310 2 
-6.579 46.981 9.14725 0.44460 2 
-4.935 46.981 9.27477 0.53657 2 
-3.290 46.981 9.23385 0.47868 2 
-1.645 46.981 9.40065 0.49245 2 
0.000 46.981 9.33933 0.71606 2 
1.645 46.981 9.50061 0.39496 2 
3.290 46.981 0.00000 -0.00000 0 
4.935 46.981 0.00000 -0.00000 0 
6.579 46.981 0.00000 -0.00000 0 
8.224 46.981 0.00000 -0.00000 0 
9.869 46.981 0.00000 -0.00000 0 
11.514 46.981 0.00000 -0.00000 0 
13.159 46.981 0.00000 -0.00000 0 
14.804 46.981 0.00000 -0.00000 0 
16.449 46.981 0.00000 -0.00000 0 
18.093 46.981 0.00000 -0.00000 0 
19.738 46.981 0.00000 -0.00000 0 
21.383 46.981 0.00000 -0.00000 0 
23.028 46.981 4.35648 0.48389 2 
24.673 46.981 8.71295 0.96777 2 
26.318 46.981 9.79418 1.01899 2 
27.963 46.981 9.27756 1.00412 2 
29.607 46.981 9.49884 1.07885 2 
31.252 46.981 9.31501 1.13981 2 
32.897 46.981 9.52151 1.16701 2 
34.542 46.981 9.55316 1.07624 2 
36.187 46.981 9.54331 1.06800 2 
37.832 46.981 9.72064 1.30424 2 
39.477 46.981 9.58215 1.27944 2 
41.121 46.981 9.66434 1.06027 2 
42.766 46.981 9.92084 1.13727 2 
44.411 46.981 9.85168 1.15588 2 
46.056 46.981 9.76881 1.35225 2 
47.701 46.981 9.59448 1.27911 2 
49.346 46.981 9.76948 1.18742 2 
50.991 46.981 10.08097 1.19484 2 
52.636 46.981 9.80173 1.19265 2 
54.280 46.981 9.85336 1.25564 2 
55.925 46.981 9.99993 1.25922 2 
57.570 46.981 9.98573 1.34860 2 
59.215 46.981 10.19536 1.32775 2 
60.860 46.981 10.33201 1.11520 2 
62.505 46.981 10.10847 1.14794 2 
64.150 46.981 10.55865 1.23702 2 
65.794 46.981 10.26997 1.07007 2 
67.439 46.981 10.24091 1.05501 2 
69.084 46.981 10.67823 1.00860 2 
70.729 46.981 10.51290 1.16282 2 
72.374 46.981 10.54424 1.23503 2 
74.019 46.981 10.59995 1.21598 2 
75.664 46.981 10.41917 1.04996 2 
77.308 46.981 10.35979 0.98435 2 
78.953 46.981 10.36203 0.93220 2 
80.598 46.981 10.79812 1.12507 2 
82.243 46.981 10.75323 1.34574 2 
83.888 46.981 10.70812 1.31905 2 
85.533 46.981 10.77940 1.13238 2 
87.178 46.981 10.85429 1.10058 2 
88.822 46.981 10.91031 1.01214 2 
90.467 46.981 10.73157 1.07507 2 
92.112 46.981 11.13107 0.77907 2 
93.757 46.981 10.82069 0.84943 2 
95.402 46.981 10.98045 0.81715 2 
97.047 46.981 11.29413 0.86818 2 
98.692 46.981 10.97808 1.14287 2 
100.336 46.981 11.51564 1.52217 2 
101.981 46.981 0.00000 -0.00000 0 
103.626 46.981 0.00000 -0.00000 0 
105.271 46.981 0.00000 -0.00000 0 
106.916 46.981 5.82973 0.37400 2 
108.561 46.981 11.40435 0.53279 2 
110.206 46.981 11.20735 0.39934 2 
111.850 46.981 11.17287 0.59221 2 
113.495 46.981 11.36147 0.66553 2 
115.140 46.981 11.33199 0.72597 2 
116.785 46.981 10.84478 0.49410 2 
118.430 46.981 10.90757 0.02395 2 
120.075 46.981 11.13740 -0.01096 2 
121.720 46.981 11.23467 -0.25570 2 
123.364 46.981 11.05292 -0.06017 2 
125.009 46.981 11.05064 0.03794 2 
126.654 46.981 11.26264 0.13996 2 
128.299 46.981 11.02227 -0.03322 2 
129.944 46.981 10.88341 0.07711 2 
131.589 46.981 10.82686 0.06735 2 
133.234 46.981 10.87909 -0.18011 2 
134.879 46.981 10.87561 -0.07188 2 
136.523 46.981 11.01325 -0.26880 2 
138.168 46.981 10.86457 -0.41176 2 
139.813 46.981 11.03517 -0.13094 2 
141.458 46.981 10.94713 -0.11307 2 
143.103 46.981 10.74053 -0.16716 2 
144.748 46.981 10.93399 0.02320 2 
146.393 46.981 10.90446 -0.27333 2 
148.037 46.981 10.89435 -0.05358 2 
149.682 46.981 10.72407 -0.15898 2 
151.327 46.981 10.83056 0.01561 2 
152.972 46.981 0.00000 -0.00000 0 
-13.159 45.336 0.00000 -0.00000 0 
-11.514 45.336 9.48349 0.36731 2 
-9.869 45.336 9.17312 0.49077 2 
-8.224 45.336 9.10288 0.42694 2 
-6.579 45.336 9.24327 0.54124 2 
-4.935 45.336 9.31069 0.36060 2 
-3.290 45.336 9.18089 0.56830 2 
-1.645 45.336 9.31926 0.67975 2 
0.000 45.336 9.32593 0.73434 2 
1.645 45.336 9.55469 0.55781 2 
3.290 45.336 0.81837 -0.16300 2 
4.935 45.336 0.00000 -0.00000 0 
6.579 45.336 0.00000 -0.00000 0 
8.224 45.336 0.00000 -0.00000 0 
9.869 45.336 0.00000 -0.00000 0 
11.514 45.336 0.00000 -0.00000 0 
13.159 45.336 0.00000 -0.00000 0 
14.804 45.336 0.00000 -0.00000 0 
16.449 45.336 0.00000 -0.00000 0 
18.093 45.336 0.00000 -0.00000 0 
19.738 45.336 0.00000 -0.00000 0 
21.383 45.336 0.00000 -0.00000 0 
23.028 45.336 5.01413 0.53688 2 
24.673 45.336 10.02827 1.07375 2 
26.318 45.336 9.31944 0.90673 2 
27.963 45.336 9.36048 1.03084 2 
29.607 45.336 9.55430 1.09552 2 
31.252 45.336 9.35879 1.24049 2 
32.897 45.336 9.58282 1.21358 2 
34.542 45.336 9.69911 1.04860 2 
36.187 45.336 9.60353 1.02543 2 
37.832 45.336 9.43863 1.14814 2 
39.477 45.336 9.39772 1.19012 2 
41.121 45.336 9.49485 1.32728 2 
42.766 45.336 9.78738 1.01495 2 
44.411 45.336 9.88394 0.99384 2 
46.056 45.336 9.83540 1.10450 2 
47.701 45.336 9.73931 1.20776 2 
49.346 45.336 9.92444 1.12348 2 
50.991 45.336 9.92012 1.10504 2 
52.636 45.336 9.68086 1.36191 2 
54.280 45.336 9.71268 1.42579 2 
55.925 45.336 10.18135 1.31019 2 
57.570 45.336 10.01253 1.16830 2 
59.215 45.336 10.00531 1.04044 2 
60.860 45.336 10.10096 1.31564 2 
62.505 45.336 10.22242 1.25687 2 
64.150 45.336 10.46344 1.41919 2 
65.794 45.336 10.08951 1.30039 2 
67.439 45.336 10.16146 1.07276 2 
69.084 45.336 10.46584 1.26853 2 
70.729 45.336 10.30211 1.12098 2 
72.374 45.336 10.56154 1.30418 2 
74.019 45.336 10.51400 1.08960 2 
75.664 45.336 10.82828 1.01551 2 
77.308 45.336 10.50867 1.08780 2 
78.953 45.336 10.74809 1.07632 2 
80.598 45.336 11.03890 1.23809 2 
82.243 45.336 10.74812 1.10560 2 
83.888 45.336 10.71420 0.98363 2 
85.533 45.336 10.85796 0.88266 2 
87.178 45.336 10.84219 0.90911 2 
88.822 45.336 10.63328 0.91280 2 
90.467 45.336 10.98829 1.00885 2 
92.112 45.336 10.97569 0.83763 2 
93.757 45.336 10.90271 1.15311 2 
95.402 45.336 10.82400 0.72651 2 
97.047 45.336 11.17702 0.52905 2 
98.692 45.336 11.47934 0.75324 2 
100.336 45.336 10.92986 1.05007 2 
101.981 45.336 0.56097 0.72045 2 
103.626 45.336 0.00000 -0.00000 0 
105.271 45.336 0.00000 -0.00000 0 
106.916 45.336 5.73082 0.13321 2 
108.561 45.336 11.46163 0.26641 2 
110.206 45.336 11.32856 0.30531 2 
111.850 45.336 11.29158 0.34788 2 
113.495 45.336 11.34651 0.28376 2 
115.140 45.336 11.21808 0.21848 2 
116.785 45.336 11.10386 0.29674 2 
118.430 45.336 11.20604 0.11130 2 
120.075 45.336 11.09013 0.38773 2 
121.720 45.336 11.05845 0.12237 2 
123.364 45.336 11.23002 -0.18802 2 
125.009 45.336 11.08136 -0.03519 2 
126.654 45.336 11.13112 -0.31088 2 
128.299 45.336 11.26980 -0.22560 2 
129.944 45.336 10.98911 -0.30324 2 
131.589 45.336 11.06273 -0.25715 2 
133.234 45.336 11.03789 0.04884 2 
134.879 45.336 10.83253 0.01669 2 
136.523 45.336 10.92848 -0.12724 2 
138.168 45.336 10.72123 -0.36006 2 
139.813 45.336 10.72066 -0.36183 2 
141.458 45.336 10.74122 -0.28021 2 
143.103 45.336 10.64895 -0.39256 2 
144.748 45.336 10.86940 0.12612 2 
146.393 45.336 10.89169 0.00984 2 
148.037 45.336 10.81538 -0.22618 2 
149.682 45.336 10.91304 -0.01781 2 
151.327 45.336 10.92968 -0.17330 2 
152.972 45.336 0.00000 -0.00000 0 
-13.159 43.692 0.00000 -0.00000 0 
-11.514 43.692 9.45149 0.23015 2 
-9.869 43.692 9.25643 0.44449 2 
-8.224 43.692 8.97515 0.60163 2 
-6.579 43.692 9.14602 0.54743 2 
-4.935 43.692 9.38530 0.55891 2 
-3.290 43.692 9.12060 0.51645 2 
-1.645 43.692 9.21702 0.69807 2 
0.000 43.692 8.93375 0.69645 2 
1.645 43.692 9.64349 0.70894 2 
3.290 43.692 5.10933 0.27712 2 
4.935 43.692 0.00000 -0.00000 0 
6.579 43.692 0.00000 -0.00000 0 
8.224 43.692 0.00000 -0.00000 0 
9.869 43.692 0.00000 -0.00000 0 
11.514 43.692 0.00000 -0.00000 0 
13.159 43.692 0.00000 -0.00000 0 
14.804 43.692 0.00000 -0.00000 0 
16.449 43.692 0.00000 -0.00000 0 
18.093 43.692 0.00000 -0.00000 0 
19.738 43.692 0.00000 -0.00000 0 
21.383 43.692 0.00000 -0.00000 0 
23.028 43.692 -1.35528 0.94278 2 
24.673 43.692 9.72183 1.39608 2 
26.318 43.692 9.08783 0.89510 2 
27.963 43.692 9.17295 1.00488 2 
29.607 43.692 9.46017 1.23943 2 
31.252 43.692 9.36656 1.30157 2 
32.897 43.692 9.42580 1.12703 2 
34.542 43.692 9.35000 1.16440 2 
36.187 43.692 9.51183 1.15846 2 
37.832 43.692 9.35426 1.07048 2 
39.477 43.692 9.45792 1.27691 2 
41.121 43.692 9.53588 1.44780 2 
42.766 43.692 9.61575 1.17063 2 
44.411 43.692 9.83359 1.15382 2 
46.056 43.692 9.88522 1.20588 2 
47.701 43.692 9.82920 0.93203 2 
49.346 43.692 9.80591 1.31699 2 
50.991 43.692 9.66907 1.30647 2 
52.636 43.692 9.81978 1.41072 2 
54.280 43.692 9.76834 1.45437 2 
55.925 43.692 10.23504 1.28300 2 
57.570 43.692 10.03007 1.32597 2 
59.215 43.692 9.94631 1.14079 2 
60.860 43.692 10.11280 1.14247 2 
62.505 43.692 10.29884 1.16987 2 
64.150 43.692 10.06102 1.12697 2 
65.794 43.692 10.29697 1.24490 2 
67.439 43.692 10.22699 1.18877 2 
69.084 43.692 10.48578 1.31888 2 
70.729 43.692 10.37694 1.31101 2 
72.374 43.692 10.41050 1.11527 2 
74.019 43.692 10.36922 1.06050 2 
75.664 43.692 10.86358 0.96643 2 
77.308 43.692 10.66639 1.33121 2 
78.953 43.692 10.92507 1.26132 2 
80.598 43.692 10.48478 1.09598 2 
82.243 43.692 10.72310 0.89997 2 
83.888 43.692 10.70097 1.13656 2 
85.533 43.692 10.90802 1.13653 2 
87.178 43.692 10.87623 0.87929 2 
88.822 43.692 10.80705 0.75382 2 
90.467 43.692 10.91067 1.29948 2 
92.112 43.692 11.07280 0.94190 2 
93.757 43.692 11.09187 1.08358 2 
95.402 43.692 11.08867 1.07624 2 
97.047 43.692 10.73884 0.82958 2 
98.692 43.692 11.25103 0.77251 2 
100.336 43.692 11.41454 1.13967 2 
101.981 43.692 0.67283 0.60962 2 
103.626 43.692 0.00000 -0.00000 0 
105.271 43.692 0.00000 -0.00000 0 
106.916 43.692 5.40481 0.72701 2 
108.561 43.692 11.24288 0.56333 2 
110.206 43.692 10.97812 0.51707 2 
111.850 43.692 11.07589 0.51268 2 
113.495 43.692 11.52814 0.25360 2 
115.140 43.692 11.53819 0.09854 2 
116.785 43.692 11.34500 0.13955 2 
118.430 43.692 11.25473 0.04094 2 
120.075 43.692 11.16626 0.08850 2 
121.720 43.692 11.10383 0.15072 2 
123.364 43.692 11.41982 0.09698 2 
125.009 43.692 11.12832 0.21224 2 
126.654 43.692 10.92960 -0.54109 2 
128.299 43.692 11.04444 -0.48126 2 
129.944 43.692 11.06568 -0.26945 2 
131.589 43.692 11.30457 -0.18296 2 
133.234 43.692 11.30572 -0.24353 2 
134.879 43.692 10.95038 -0.29857 2 
136.523 43.692 10.86996 -0.31083 2 
138.168 43.692 10.57415 -0.29032 2 
139.813 43.692 10.75190 -0.25057 2 
141.458 43.692 10.77397 -0.02973 2 
143.103 43.692 10.75386 -0.21408 2 
144.748 43.692 10.76507 -0.17750 2 
146.393 43.692 10.95151 -0.14495 2 
148.037 43.692 10.95940 -0.00508 2 
149.682 43.692 11.11339 -0.03781 2 
151.327 43.692 11.00858 0.17852 2 
152.972 43.692 0.00000 -0.00000 0 
-13.159 42.047 0.00000 -0.00000 0 
-11.514 42.047 9.26181 0.52197 2 
-9.869 42.047 9.13122 0.41329 2 
-8.224 42.047 9.08175 0.47398 2 
-6.579 42.047 9.15429 0.40433 2 
-4.935 42.047 9.42390 0.68190 2 
-3.290 42.047 9.23979 0.51095 2 
-1.645 42.047 9.21126 0.54027 2 
0.000 42.047 9.09452 0.66137 2 
1.645 42.047 9.57369 0.47796 2 
3.290 42.047 9.08371 0.13484 2 
4.935 42.047 0.00000 -0.00000 0 
6.579 42.047 0.00000 -0.00000 0 
8.224 42.047 0.00000 -0.00000 0 
9.869 42.047 0.00000 -0.00000 0 
11.514 42.047 0.00000 -0.00000 0 
13.159 42.047 0.00000 -0.00000 0 
14.804 42.047 0.00000 -0.00000 0 
16.449 42.047 0.00000 -0.00000 0 
18.093 42.047 0.00000 -0.00000 0 
19.738 42.047 0.00000 -0.00000 0 
21.383 42.047 0.00000 -0.00000 0 
23.028 42.047 0.43766 1.53331 2 
24.673 42.047 10.22478 1.43289 2 
26.318 42.047 9.11493 0.97180 2 
27.963 42.047 9.15948 1.04927 2 
29.607 42.047 9.34798 1.23301 2 
31.252 42.047 9.55465 1.34004 2 
32.897 42.047 9.47732 1.16036 2 
34.542 42.047 9.40588 1.26220 2 
36.187 42.047 9.48500 1.27804 2 
37.832 42.047 9.58799 1.06287 2 
39.477 42.047 9.63208 1.21741 2 
41.121 42.047 9.64280 1.38757 2 
42.766 42.047 9.69048 1.26344 2 
44.411 42.047 9.85236 1.14329 2 
46.056 42.047 9.71307 1.33671 2 
47.701 42.047 9.93035 1.19932 2 
49.346 42.047 9.90297 1.29996 2 
50.991 42.047 9.81486 1.05628 2 
52.636 42.047 9.95869 1.45953 2 
54.280 42.047 9.98662 1.37657 2 
55.925 42.047 10.23657 1.28588 2 
57.570 42.047 10.07254 1.49774 2 
59.215 42.047 9.88016 1.28179 2 
60.860 42.047 10.09822 1.06392 2 
62.505 42.047 10.21320 1.25468 2 
64.150 42.047 10.02872 1.18342 2 
65.794 42.047 10.51145 1.26832 2 
67.439 42.047 10.36926 1.26882 2 
69.084 42.047 10.50357 1.09992 2 
70.729 42.047 10.36279 1.19357 2 
72.374 42.047 10.25009 1.18729 2 
74.019 42.047 10.56937 1.24937 2 
75.664 42.047 10.71935 1.12813 2 
77.308 42.047 10.44243 1.29868 2 
78.953 42.047 10.92404 1.26904 2 
80.598 42.047 10.54090 1.18941 2 
82.243 42.047 10.53313 1.28130 2 
83.888 42.047 10.61923 1.39986 2 
85.533 42.047 10.81306 1.28230 2 
87.178 42.047 10.89962 0.85827 2 
88.822 42.047 11.11003 1.06950 2 
90.467 42.047 10.91279 0.85160 2 
92.112 42.047 11.13909 0.71337 2 
93.757 42.047 11.09474 0.98472 2 
95.402 42.047 10.65617 0.95808 2 
97.047 42.047 10.65780 0.95492 2 
98.692 42.047 11.09753 0.78158 2 
100.336 42.047 11.89922 1.22927 2 
101.981 42.047 3.22842 1.15274 2 
103.626 42.047 0.00000 -0.00000 0 
105.271 42.047 0.00000 -0.00000 0 
106.916 42.047 5.73635 0.35868 2 
108.561 42.047 11.47270 0.71735 2 
110.206 42.047 11.42876 0.65624 2 
111.850 42.047 11.21644 0.54882 2 
113.495 42.047 11.30422 0.54823 2 
115.140 42.047 11.41073 0.30845 2 
116.785 42.047 11.60990 0.04395 2 
118.430 42.047 11.18811 0.05838 2 
120.075 42.047 11.13084 0.11727 2 
121.720 42.047 11.31217 0.03139 2 
123.364 42.047 11.35855 -0.07101 2 
125.009 42.047 11.18525 -0.18131 2 
126.654 42.047 10.96214 -0.37492 2 
128.299 42.047 11.00914 -0.61740 2 
129.944 42.047 11.28019 -0.30209 2 
131.589 42.047 11.28430 -0.26476 2 
133.234 42.047 10.91577 -0.39179 2 
134.879 42.047 10.97076 -0.03022 2 
136.523 42.047 11.12934 -0.36252 2 
138.168 42.047 10.78473 -0.23314 2 
139.813 42.047 10.61613 -0.24169 2 
141.458 42.047 10.80726 -0.09468 2 
143.103 42.047 10.76219 -0.00615 2 
144.748 42.047 10.73383 -0.08587 2 
146.393 42.047 10.83437 -0.12122 2 
148.037 42.047 10.87096 -0.08955 2 
149.682 42.047 10.77166 0.09449 2 
151.327 42.047 11.01179 0.04694 2 
152.972 42.047 0.00000 -0.00000 0 
-13.159 40.402 0.00000 -0.00000 0 
-11.514 40.402 9.50084 0.60345 2 
-9.869 40.402 9.10525 0.46054 2 
-8.224 40.402 9.17829 0.34395 2 
-6.579 40.402 9.18975 0.44229 2 
-4.935 40.402 9.15156 0.49513 2 
-3.290 40.402 9.16923 0.64087 2 
-1.645 40.402 9.10787 0.59958 2 
0.000 40.402 9.14969 0.61132 2 
1.645 40.402 9.21722 0.62491 2 
3.290 40.402 9.15122 0.39228 2 
4.935 40.402 0.00000 -0.00000 0 
6.579 40.402 0.00000 -0.00000 0 
8.224 40.402 0.00000 -0.00000 0 
9.869 40.402 0.00000 -0.00000 0 
11.514 40.402 0.00000 -0.00000 0 
13.159 40.402 0.00000 -0.00000 0 
14.804 40.402 0.00000 -0.00000 0 
16.449 40.402 0.00000 -0.00000 0 
18.093 40.402 0.00000 -0.00000 0 
19.738 40.402 0.00000 -0.00000 0 
21.383 40.402 0.00000 -0.00000 0 
23.028 40.402 2.72139 1.12352 2 
24.673 40.402 10.16608 0.95624 2 
26.318 40.402 9.30695 1.19079 2 
27.963 40.402 9.50177 1.15020 2 
29.607 40.402 9.25977 1.11738 2 
31.252 40.402 9.51747 1.17488 2 
32.897 40.402 9.39231 1.21928 2 
34.542 40.402 9.47847 1.17242 2 
36.187 40.402 9.51155 1.29158 2 
37.832 40.402 9.62174 1.22966 2 
39.477 40.402 9.52405 1.26209 2 
41.121 40.402 9.61828 1.46585 2 
42.766 40.402 9.70345 1.33011 2 
44.411 40.402 9.62002 1.18804 2 
46.056 40.402 9.50872 1.28150 2 
47.701 40.402 9.87368 1.43320 2 
49.346 40.402 9.96620 1.27964 2 
50.991 40.402 9.91458 1.05199 2 
52.636 40.402 9.92024 1.21508 2 
54.280 40.402 10.09379 1.49659 2 
55.925 40.402 10.17696 1.51504 2 
57.570 40.402 10.12114 1.25887 2 
59.215 40.402 9.97548 1.22054 2 
60.860 40.402 10.17115 1.25954 2 
62.505 40.402 10.13661 1.46663 2 
64.150 40.402 10.29150 1.30845 2 
65.794 40.402 10.41458 1.31082 2 
67.439 40.402 10.19357 1.34518 2 
69.084 40.402 10.38328 1.01112 2 
70.729 40.402 10.68434 1.04953 2 
72.374 40.402 10.36025 1.19368 2 
74.019 40.402 10.49833 1.21406 2 
75.664 40.402 10.66190 0.92299 2 
77.308 40.402 10.53734 1.09828 2 
78.953 40.402 10.99148 0.98375 2 
80.598 40.402 10.86056 1.27769 2 
82.243 40.402 10.77136 1.06168 2 
83.888 40.402 10.72815 1.10749 2 
85.533 40.402 10.66982 1.07081 2 