TITLE = "B00043"
VARIABLES = "X [mm]", "Y [mm]", "Vx [m/s]", "Vy [m/s]", "Flag"
ZONE T="Frame 1", I=102, J=77, F=POINT
-13.159 53.561 0.00000 -0.00000 0 
-11.514 53.561 0.00000 -0.00000 0 
-9.869 53.561 9.38941 0.04360 2 
-8.224 53.561 9.37905 0.04703 2 
-6.579 53.561 9.36868 0.05046 2 
-4.935 53.561 9.35832 0.05389 2 
-3.290 53.561 9.34795 0.05733 2 
-1.645 53.561 9.33759 0.06076 2 
0.000 53.561 9.32722 0.06419 2 
1.645 53.561 9.56348 0.15662 2 
3.290 53.561 0.00000 -0.00000 0 
4.935 53.561 0.00000 -0.00000 0 
6.579 53.561 0.00000 -0.00000 0 
8.224 53.561 0.00000 -0.00000 0 
9.869 53.561 0.00000 -0.00000 0 
11.514 53.561 0.00000 -0.00000 0 
13.159 53.561 0.00000 -0.00000 0 
14.804 53.561 0.00000 -0.00000 0 
16.449 53.561 0.00000 -0.00000 0 
18.093 53.561 0.00000 -0.00000 0 
19.738 53.561 0.00000 -0.00000 0 
21.383 53.561 0.00000 -0.00000 0 
23.028 53.561 2.82201 0.37920 2 
24.673 53.561 5.64402 0.75839 2 
26.318 53.561 9.80498 0.48276 2 
27.963 53.561 9.55343 0.50307 2 
29.607 53.561 9.49429 0.48651 2 
31.252 53.561 9.52945 0.51551 2 
32.897 53.561 9.56461 0.54450 2 
34.542 53.561 9.59977 0.57350 2 
36.187 53.561 9.63493 0.60249 2 
37.832 53.561 9.67008 0.63149 2 
39.477 53.561 9.70524 0.66048 2 
41.121 53.561 9.81994 0.71460 2 
42.766 53.561 9.83193 0.69406 2 
44.411 53.561 9.84393 0.67352 2 
46.056 53.561 9.85593 0.65297 2 
47.701 53.561 9.86793 0.63243 2 
49.346 53.561 9.87992 0.61189 2 
50.991 53.561 9.89192 0.59135 2 
52.636 53.561 9.90392 0.57081 2 
54.280 53.561 9.91592 0.55026 2 
55.925 53.561 10.10789 0.46305 2 
57.570 53.561 10.13375 0.49271 2 
59.215 53.561 10.15961 0.52236 2 
60.860 53.561 10.18547 0.55202 2 
62.505 53.561 10.21133 0.58168 2 
64.150 53.561 10.23718 0.61133 2 
65.794 53.561 10.26669 0.61769 2 
67.439 53.561 10.29619 0.62405 2 
69.084 53.561 10.32934 0.60711 2 
70.729 53.561 10.36249 0.59017 2 
72.374 53.561 10.39564 0.57323 2 
74.019 53.561 10.42879 0.55629 2 
75.664 53.561 10.46194 0.53935 2 
77.308 53.561 10.49509 0.52241 2 
78.953 53.561 10.59075 0.39839 2 
80.598 53.561 10.64156 0.39137 2 
82.243 53.561 10.69237 0.38436 2 
83.888 53.561 10.74318 0.37734 2 
85.533 53.561 10.79399 0.37033 2 
87.178 53.561 10.84480 0.36331 2 
88.822 53.561 10.89561 0.35630 2 
90.467 53.561 10.94642 0.34928 2 
92.112 53.561 10.99723 0.34227 2 
93.757 53.561 11.04804 0.33525 2 
95.402 53.561 11.09884 0.32824 2 
97.047 53.561 11.16492 0.38135 2 
98.692 53.561 11.62293 0.29376 2 
100.336 53.561 0.71418 0.29545 2 
101.981 53.561 0.00000 -0.00000 0 
103.626 53.561 0.00000 -0.00000 0 
105.271 53.561 0.00000 -0.00000 0 
106.916 53.561 2.62836 0.68336 2 
108.561 53.561 9.97444 0.36108 2 
110.206 53.561 10.70730 0.29116 2 
111.850 53.561 11.44017 0.22123 2 
113.495 53.561 10.88308 0.21667 2 
115.140 53.561 11.21335 0.12405 2 
116.785 53.561 11.23722 0.22667 2 
118.430 53.561 10.96058 0.17536 2 
120.075 53.561 10.98621 0.06973 2 
121.720 53.561 11.32267 0.15874 2 
123.364 53.561 11.05482 0.09492 2 
125.009 53.561 10.95103 0.21359 2 
126.654 53.561 10.72723 0.11148 2 
128.299 53.561 10.92841 -0.02374 2 
129.944 53.561 10.88216 -0.13991 2 
131.589 53.561 11.11604 -0.30144 2 
133.234 53.561 11.25950 -0.23847 2 
134.879 53.561 11.07045 -0.13687 2 
136.523 53.561 10.74755 -0.09453 2 
138.168 53.561 10.87425 -0.06767 2 
139.813 53.561 10.96010 -0.17434 2 
141.458 53.561 10.92569 -0.25870 2 
143.103 53.561 10.76756 -0.18579 2 
144.748 53.561 10.56063 -0.12534 2 
146.393 53.561 0.00000 -0.00000 0 
148.037 53.561 0.00000 -0.00000 0 
149.682 53.561 0.00000 -0.00000 0 
151.327 53.561 0.00000 -0.00000 0 
152.972 53.561 0.00000 -0.00000 0 
-13.159 51.916 0.00000 -0.00000 0 
-11.514 51.916 9.32296 0.45740 2 
-9.869 51.916 9.35423 0.64374 2 
-8.224 51.916 9.36482 0.68454 2 
-6.579 51.916 9.35571 0.56300 2 
-4.935 51.916 9.46696 0.53631 2 
-3.290 51.916 9.18356 0.42923 2 
-1.645 51.916 9.28905 0.62657 2 
0.000 51.916 9.15627 1.02930 2 
1.645 51.916 4.57813 0.51465 2 
3.290 51.916 0.00000 -0.00000 0 
4.935 51.916 0.00000 -0.00000 0 
6.579 51.916 0.00000 -0.00000 0 
8.224 51.916 0.00000 -0.00000 0 
9.869 51.916 0.00000 -0.00000 0 
11.514 51.916 0.00000 -0.00000 0 
13.159 51.916 0.00000 -0.00000 0 
14.804 51.916 0.00000 -0.00000 0 
16.449 51.916 0.00000 -0.00000 0 
18.093 51.916 0.00000 -0.00000 0 
19.738 51.916 0.00000 -0.00000 0 
21.383 51.916 0.00000 -0.00000 0 
23.028 51.916 2.82201 0.37920 2 
24.673 51.916 6.33083 0.48468 2 
26.318 51.916 9.83966 0.59017 2 
27.963 51.916 9.47511 1.10790 2 
29.607 51.916 9.47875 1.24897 2 
31.252 51.916 9.48496 1.24186 2 
32.897 51.916 9.55572 1.11959 2 
34.542 51.916 9.45449 1.06931 2 
36.187 51.916 9.53675 1.03413 2 
37.832 51.916 9.64086 1.26221 2 
39.477 51.916 9.51682 1.23476 2 
41.121 51.916 9.72864 1.10018 2 
42.766 51.916 9.74105 1.19298 2 
44.411 51.916 9.77363 1.29310 2 
46.056 51.916 9.66711 1.22834 2 
47.701 51.916 9.79140 1.22504 2 
49.346 51.916 9.86568 1.28902 2 
50.991 51.916 10.04620 1.11735 2 
52.636 51.916 10.06976 1.09541 2 
54.280 51.916 9.99686 1.29050 2 
55.925 51.916 10.12752 1.28863 2 
57.570 51.916 10.34011 1.06222 2 
59.215 51.916 10.19787 0.97907 2 
60.860 51.916 10.00987 1.10218 2 
62.505 51.916 10.22988 1.08473 2 
64.150 51.916 10.44989 1.06728 2 
65.794 51.916 10.29045 1.27366 2 
67.439 51.916 10.15030 1.22922 2 
69.084 51.916 10.24880 1.12857 2 
70.729 51.916 10.42505 1.20417 2 
72.374 51.916 10.53063 1.19151 2 
74.019 51.916 10.54019 1.27897 2 
75.664 51.916 10.55388 1.10164 2 
77.308 51.916 10.61064 0.98364 2 
78.953 51.916 10.71072 1.28330 2 
80.598 51.916 10.72302 1.32415 2 
82.243 51.916 10.69987 1.24552 2 
83.888 51.916 10.74246 1.20875 2 
85.533 51.916 10.60880 1.22927 2 
87.178 51.916 10.91402 1.30132 2 
88.822 51.916 10.48163 1.24707 2 
90.467 51.916 10.96441 1.36743 2 
92.112 51.916 10.78239 0.91721 2 
93.757 51.916 10.82517 1.14462 2 
95.402 51.916 10.97704 0.88861 2 
97.047 51.916 10.93566 0.58588 2 
98.692 51.916 11.51962 0.85175 2 
100.336 51.916 3.26723 0.38921 2 
101.981 51.916 0.00000 -0.00000 0 
103.626 51.916 0.00000 -0.00000 0 
105.271 51.916 0.00000 -0.00000 0 
106.916 51.916 5.64765 0.35844 2 
108.561 51.916 11.29530 0.71687 2 
110.206 51.916 11.80448 0.48130 2 
111.850 51.916 11.01350 0.31384 2 
113.495 51.916 10.96538 0.41232 2 
115.140 51.916 11.29276 0.37747 2 
116.785 51.916 10.90690 0.19042 2 
118.430 51.916 10.86725 0.17043 2 
120.075 51.916 11.12442 0.27360 2 
121.720 51.916 11.08151 0.10862 2 
123.364 51.916 10.82772 0.09424 2 
125.009 51.916 11.13132 -0.11966 2 
126.654 51.916 10.89607 0.13942 2 
128.299 51.916 11.05699 -0.13761 2 
129.944 51.916 10.99764 -0.42693 2 
131.589 51.916 10.91200 -0.57177 2 
133.234 51.916 10.91435 -0.45704 2 
134.879 51.916 10.81861 -0.25408 2 
136.523 51.916 10.82617 -0.51259 2 
138.168 51.916 10.90254 -0.28066 2 
139.813 51.916 10.85330 -0.44905 2 
141.458 51.916 11.08852 -0.30878 2 
143.103 51.916 10.75663 -0.64423 2 
144.748 51.916 10.80204 -0.79108 2 
146.393 51.916 10.67971 -0.82493 2 
148.037 51.916 10.39947 -0.78428 2 
149.682 51.916 10.73249 -0.57823 2 
151.327 51.916 11.08982 -0.88897 2 
152.972 51.916 0.00000 -0.00000 0 
-13.159 50.271 0.00000 -0.00000 0 
-11.514 50.271 9.34006 0.56009 2 
-9.869 50.271 9.22494 0.48436 2 
-8.224 50.271 9.34367 0.42214 2 
-6.579 50.271 9.44234 0.52632 2 
-4.935 50.271 9.24044 0.57885 2 
-3.290 50.271 9.23237 0.67758 2 
-1.645 50.271 9.47279 0.60797 2 
0.000 50.271 9.15266 0.67983 2 
1.645 50.271 4.57633 0.33992 2 
3.290 50.271 0.00000 -0.00000 0 
4.935 50.271 0.00000 -0.00000 0 
6.579 50.271 0.00000 -0.00000 0 
8.224 50.271 0.00000 -0.00000 0 
9.869 50.271 0.00000 -0.00000 0 
11.514 50.271 0.00000 -0.00000 0 
13.159 50.271 0.00000 -0.00000 0 
14.804 50.271 0.00000 -0.00000 0 
16.449 50.271 0.00000 -0.00000 0 
18.093 50.271 0.00000 -0.00000 0 
19.738 50.271 0.00000 -0.00000 0 
21.383 50.271 0.00000 -0.00000 0 
23.028 50.271 3.33358 0.19673 2 
24.673 50.271 6.66715 0.39345 2 
26.318 50.271 10.00073 0.59018 2 
27.963 50.271 9.38516 1.05485 2 
29.607 50.271 9.54602 1.00425 2 
31.252 50.271 9.45127 1.03611 2 
32.897 50.271 9.34967 0.93369 2 
34.542 50.271 9.45010 1.01076 2 
36.187 50.271 9.42888 1.21410 2 
37.832 50.271 9.57134 1.08242 2 
39.477 50.271 9.63068 1.11306 2 
41.121 50.271 9.72666 0.91304 2 
42.766 50.271 9.68582 1.10222 2 
44.411 50.271 9.71486 0.69266 2 
46.056 50.271 10.05260 1.26365 2 
47.701 50.271 9.81961 0.83604 2 
49.346 50.271 9.72765 0.93671 2 
50.991 50.271 9.86804 1.03286 2 
52.636 50.271 10.01929 0.86259 2 
54.280 50.271 9.98543 1.08256 2 
55.925 50.271 9.98019 1.32389 2 
57.570 50.271 10.01796 1.14749 2 
59.215 50.271 10.05728 1.05446 2 
60.860 50.271 10.01075 1.21444 2 
62.505 50.271 10.25411 1.13685 2 
64.150 50.271 10.34580 0.95439 2 
65.794 50.271 10.36093 1.13623 2 
67.439 50.271 10.23419 1.02460 2 
69.084 50.271 10.39581 1.12649 2 
70.729 50.271 10.45088 0.97251 2 
72.374 50.271 10.47183 1.12338 2 
74.019 50.271 10.67749 1.16394 2 
75.664 50.271 10.62180 0.84776 2 
77.308 50.271 10.62294 0.79088 2 
78.953 50.271 10.79719 1.26717 2 
80.598 50.271 10.41021 1.16702 2 
82.243 50.271 10.81527 1.07189 2 
83.888 50.271 11.02822 1.02705 2 
85.533 50.271 10.55944 1.03962 2 
87.178 50.271 10.81177 1.00486 2 
88.822 50.271 10.46185 0.99475 2 
90.467 50.271 10.71613 0.83062 2 
92.112 50.271 10.82867 0.57498 2 
93.757 50.271 10.92552 0.99442 2 
95.402 50.271 10.79154 1.11213 2 
97.047 50.271 10.70641 0.79040 2 
98.692 50.271 11.39723 0.41867 2 
100.336 50.271 5.77980 0.53066 2 
101.981 50.271 0.00000 -0.00000 0 
103.626 50.271 0.00000 -0.00000 0 
105.271 50.271 0.00000 -0.00000 0 
106.916 50.271 5.50573 0.23709 2 
108.561 50.271 11.01147 0.47417 2 
110.206 50.271 11.20820 0.42511 2 
111.850 50.271 11.02398 0.16139 2 
113.495 50.271 11.17146 0.33318 2 
115.140 50.271 11.32581 0.36637 2 
116.785 50.271 11.10046 0.03123 2 
118.430 50.271 11.03835 0.04563 2 
120.075 50.271 11.00984 0.20925 2 
121.720 50.271 11.08005 -0.12730 2 
123.364 50.271 10.85907 0.00531 2 
125.009 50.271 11.13020 -0.12154 2 
126.654 50.271 11.27558 -0.17789 2 
128.299 50.271 10.99613 -0.41314 2 
129.944 50.271 11.39431 -0.34104 2 
131.589 50.271 11.00321 -0.01595 2 
133.234 50.271 10.88954 -0.26184 2 
134.879 50.271 10.79860 -0.20070 2 
136.523 50.271 10.97780 -0.47942 2 
138.168 50.271 10.74646 -0.57093 2 
139.813 50.271 10.65760 -0.53984 2 
141.458 50.271 11.10832 -0.31516 2 
143.103 50.271 10.63227 -0.55388 2 
144.748 50.271 10.63874 -0.59078 2 
146.393 50.271 10.84198 -0.64665 2 
148.037 50.271 10.50462 -0.74720 2 
149.682 50.271 10.63245 -0.65587 2 
151.327 50.271 11.16452 -0.74734 2 
152.972 50.271 0.00000 -0.00000 0 
-13.159 48.626 0.00000 -0.00000 0 
-11.514 48.626 9.31349 0.49850 2 
-9.869 48.626 9.16242 0.51845 2 
-8.224 48.626 9.27359 0.35637 2 
-6.579 48.626 9.27540 0.59524 2 
-4.935 48.626 9.18834 0.72896 2 
-3.290 48.626 9.17071 0.66083 2 
-1.645 48.626 9.42839 0.59863 2 
0.000 48.626 9.26743 0.51542 2 
1.645 48.626 9.49091 0.48366 2 
3.290 48.626 0.00000 -0.00000 0 
4.935 48.626 0.00000 -0.00000 0 
6.579 48.626 0.00000 -0.00000 0 
8.224 48.626 0.00000 -0.00000 0 
9.869 48.626 0.00000 -0.00000 0 
11.514 48.626 0.00000 -0.00000 0 
13.159 48.626 0.00000 -0.00000 0 
14.804 48.626 0.00000 -0.00000 0 
16.449 48.626 0.00000 -0.00000 0 
18.093 48.626 0.00000 -0.00000 0 
19.738 48.626 0.00000 -0.00000 0 
21.383 48.626 0.00000 -0.00000 0 
23.028 48.626 4.04189 0.19808 2 
24.673 48.626 7.37547 0.39480 2 
26.318 48.626 10.28181 0.74351 2 
27.963 48.626 9.33092 1.04787 2 
29.607 48.626 9.53423 1.04863 2 
31.252 48.626 9.42790 0.80076 2 
32.897 48.626 9.37650 0.95191 2 
34.542 48.626 9.48311 1.21636 2 
36.187 48.626 9.44029 1.09386 2 
37.832 48.626 9.55036 0.97457 2 
39.477 48.626 9.72012 1.18004 2 
41.121 48.626 9.64241 1.06725 2 
42.766 48.626 9.48914 1.13985 2 
44.411 48.626 9.58340 0.93094 2 
46.056 48.626 9.58312 1.46065 2 
47.701 48.626 9.81871 0.98162 2 
49.346 48.626 9.77116 1.05427 2 
50.991 48.626 9.90900 1.13361 2 
52.636 48.626 10.05221 1.23564 2 
54.280 48.626 9.90326 1.07172 2 
55.925 48.626 10.03952 1.19549 2 
57.570 48.626 10.26768 1.29627 2 
59.215 48.626 9.91669 1.12984 2 
60.860 48.626 10.24518 1.19777 2 
62.505 48.626 10.53570 1.22711 2 
64.150 48.626 10.45412 1.11053 2 
65.794 48.626 10.31955 1.08183 2 
67.439 48.626 10.49653 1.08896 2 
69.084 48.626 10.18500 1.31561 2 
70.729 48.626 10.16163 1.09135 2 
72.374 48.626 10.42131 0.88851 2 
74.019 48.626 10.68974 1.06583 2 
75.664 48.626 10.77084 1.04809 2 
77.308 48.626 10.63859 0.82236 2 
78.953 48.626 10.64236 1.09582 2 
80.598 48.626 10.47045 1.03115 2 
82.243 48.626 10.70596 0.75092 2 
83.888 48.626 10.88181 0.86230 2 
85.533 48.626 10.79113 0.90665 2 
87.178 48.626 10.92927 1.11388 2 
88.822 48.626 10.50280 0.92383 2 
90.467 48.626 10.61221 0.83419 2 
92.112 48.626 10.85495 0.76770 2 
93.757 48.626 10.88448 0.95715 2 
95.402 48.626 10.77747 1.12227 2 
97.047 48.626 11.17949 0.40205 2 
98.692 48.626 11.13269 0.47743 2 
100.336 48.626 11.40343 0.72035 2 
101.981 48.626 0.00000 -0.00000 0 
103.626 48.626 0.00000 -0.00000 0 
105.271 48.626 0.00000 -0.00000 0 
106.916 48.626 5.05895 0.49628 2 
108.561 48.626 11.53229 0.41160 2 
110.206 48.626 11.21522 0.12215 2 
111.850 48.626 11.25889 0.25742 2 
113.495 48.626 11.39829 0.39530 2 
115.140 48.626 11.13609 0.26432 2 
116.785 48.626 11.06549 0.04763 2 
118.430 48.626 11.19386 -0.01954 2 
120.075 48.626 11.10894 0.08682 2 
121.720 48.626 11.36525 0.08483 2 
123.364 48.626 11.01099 -0.13624 2 
125.009 48.626 11.16796 -0.15179 2 
126.654 48.626 11.21663 -0.26907 2 
128.299 48.626 11.03406 -0.35331 2 
129.944 48.626 11.36349 -0.29047 2 
131.589 48.626 11.01921 -0.01929 2 
133.234 48.626 11.29505 -0.19319 2 
134.879 48.626 11.27633 -0.36160 2 
136.523 48.626 10.95620 -0.54412 2 
138.168 48.626 10.84256 -0.55968 2 
139.813 48.626 10.89884 -0.32850 2 
141.458 48.626 11.03131 -0.52052 2 
143.103 48.626 10.52424 -0.53642 2 
144.748 48.626 10.54633 -0.48448 2 
146.393 48.626 10.72052 -0.70276 2 
148.037 48.626 10.61267 -0.55675 2 
149.682 48.626 10.94125 -0.73090 2 
151.327 48.626 10.73325 -0.81788 2 
152.972 48.626 0.00000 -0.00000 0 
-13.159 46.981 0.00000 -0.00000 0 
-11.514 46.981 9.28693 0.43692 2 
-9.869 46.981 9.01322 0.62586 2 
-8.224 46.981 9.17386 0.36305 2 
-6.579 46.981 9.18057 0.49727 2 
-4.935 46.981 9.31950 0.52563 2 
-3.290 46.981 9.16282 0.44306 2 
-1.645 46.981 9.11983 0.63736 2 
0.000 46.981 8.96209 0.89246 2 
1.645 46.981 9.70687 0.71642 2 
3.290 46.981 0.00000 -0.00000 0 
4.935 46.981 0.00000 -0.00000 0 
6.579 46.981 0.00000 -0.00000 0 
8.224 46.981 0.00000 -0.00000 0 
9.869 46.981 0.00000 -0.00000 0 
11.514 46.981 0.00000 -0.00000 0 
13.159 46.981 0.00000 -0.00000 0 
14.804 46.981 0.00000 -0.00000 0 
16.449 46.981 0.00000 -0.00000 0 
18.093 46.981 0.00000 -0.00000 0 
19.738 46.981 0.00000 -0.00000 0 
21.383 46.981 0.00000 -0.00000 0 
23.028 46.981 4.04189 0.19808 2 
24.673 46.981 8.08378 0.39615 2 
26.318 46.981 10.28108 1.09382 2 
27.963 46.981 9.26395 0.82013 2 
29.607 46.981 9.38061 1.16425 2 
31.252 46.981 9.58881 1.16201 2 
32.897 46.981 9.52122 1.00530 2 
34.542 46.981 9.37645 1.00288 2 
36.187 46.981 9.33238 1.09786 2 
37.832 46.981 9.61890 1.06103 2 
39.477 46.981 9.73750 1.19076 2 
41.121 46.981 9.73041 1.26375 2 
42.766 46.981 9.73731 1.10377 2 
44.411 46.981 9.73565 1.16801 2 
46.056 46.981 9.57857 1.42267 2 
47.701 46.981 9.81781 1.12720 2 
49.346 46.981 9.81468 1.17183 2 
50.991 46.981 9.88377 1.51661 2 
52.636 46.981 9.93668 1.37760 2 
54.280 46.981 9.83586 1.09716 2 
55.925 46.981 9.97893 1.09512 2 
57.570 46.981 10.21471 1.19130 2 
59.215 46.981 10.09073 1.28907 2 
60.860 46.981 10.26796 1.25573 2 
62.505 46.981 10.22137 1.47625 2 
64.150 46.981 10.24906 1.18923 2 
65.794 46.981 10.20770 0.98302 2 
67.439 46.981 10.27738 1.07708 2 
69.084 46.981 10.10764 1.33355 2 
70.729 46.981 10.39014 1.27305 2 
72.374 46.981 10.49497 1.25174 2 
74.019 46.981 10.46388 1.27868 2 
75.664 46.981 10.62695 1.25353 2 
77.308 46.981 10.53203 1.20740 2 
78.953 46.981 10.66034 1.11641 2 
80.598 46.981 10.57886 1.14752 2 
82.243 46.981 10.77672 0.87534 2 
83.888 46.981 10.54920 1.04522 2 
85.533 46.981 10.79607 1.21451 2 
87.178 46.981 10.82629 1.05224 2 
88.822 46.981 10.67082 0.97353 2 
90.467 46.981 11.12544 1.02382 2 
92.112 46.981 11.07020 1.02517 2 
93.757 46.981 11.01535 1.09335 2 
95.402 46.981 10.78627 0.64053 2 
97.047 46.981 10.87260 0.51926 2 
98.692 46.981 11.13086 0.77723 2 
100.336 46.981 11.59575 1.08243 2 
101.981 46.981 0.00000 -0.00000 0 
103.626 46.981 0.00000 -0.00000 0 
105.271 46.981 0.00000 -0.00000 0 
106.916 46.981 5.91360 0.79410 2 
108.561 46.981 11.38648 0.62864 2 
110.206 46.981 11.22849 0.36718 2 
111.850 46.981 11.03325 0.45675 2 
113.495 46.981 11.30677 0.35042 2 
115.140 46.981 11.21704 0.17505 2 
116.785 46.981 11.10412 -0.11544 2 
118.430 46.981 11.30013 -0.11181 2 
120.075 46.981 11.31001 0.08995 2 
121.720 46.981 11.39896 -0.17424 2 
123.364 46.981 11.21974 -0.12012 2 
125.009 46.981 11.33502 -0.33611 2 
126.654 46.981 11.27598 -0.42459 2 
128.299 46.981 11.07199 -0.29347 2 
129.944 46.981 11.03320 -0.17458 2 
131.589 46.981 11.03520 -0.02264 2 
133.234 46.981 11.24508 -0.40168 2 
134.879 46.981 11.14857 -0.44166 2 
136.523 46.981 10.93767 -0.61350 2 
138.168 46.981 10.88481 -0.61942 2 
139.813 46.981 11.09880 -0.31372 2 
141.458 46.981 11.09738 -0.80142 2 
143.103 46.981 10.78075 -0.90944 2 
144.748 46.981 10.99994 -0.78903 2 
146.393 46.981 10.66202 -0.86867 2 
148.037 46.981 10.75540 -0.70229 2 
149.682 46.981 10.73188 -0.65819 2 
151.327 46.981 11.00079 -0.52674 2 
152.972 46.981 0.00000 -0.00000 0 
-13.159 45.336 0.00000 -0.00000 0 
-11.514 45.336 9.26036 0.37533 2 
-9.869 45.336 9.11078 0.46965 2 
-8.224 45.336 9.20082 0.36800 2 
-6.579 45.336 9.28030 0.57028 2 
-4.935 45.336 9.43319 0.54390 2 
-3.290 45.336 8.98343 0.50355 2 
-1.645 45.336 8.99501 0.40088 2 
0.000 45.336 9.06665 0.70015 2 
1.645 45.336 9.43921 0.72441 2 
3.290 45.336 9.81400 0.46182 2 
4.935 45.336 0.00000 -0.00000 0 
6.579 45.336 0.00000 -0.00000 0 
8.224 45.336 0.00000 -0.00000 0 
9.869 45.336 0.00000 -0.00000 0 
11.514 45.336 0.00000 -0.00000 0 
13.159 45.336 0.00000 -0.00000 0 
14.804 45.336 0.00000 -0.00000 0 
16.449 45.336 0.00000 -0.00000 0 
18.093 45.336 0.00000 -0.00000 0 
19.738 45.336 0.00000 -0.00000 0 
21.383 45.336 0.00000 -0.00000 0 
23.028 45.336 4.50186 0.36996 2 
24.673 45.336 9.00373 0.73993 2 
26.318 45.336 10.03219 1.07806 2 
27.963 45.336 9.18248 0.75630 2 
29.607 45.336 9.29838 1.06266 2 
31.252 45.336 9.50271 1.09439 2 
32.897 45.336 9.45977 1.06495 2 
34.542 45.336 9.36141 1.11855 2 
36.187 45.336 9.36821 1.14510 2 
37.832 45.336 9.74982 1.42684 2 
39.477 45.336 9.51121 1.15511 2 
41.121 45.336 9.71675 0.91911 2 
42.766 45.336 9.70271 1.03812 2 
44.411 45.336 9.72034 1.18125 2 
46.056 45.336 9.80818 1.24348 2 
47.701 45.336 9.79219 1.28375 2 
49.346 45.336 10.08215 1.24519 2 
50.991 45.336 9.76310 1.20627 2 
52.636 45.336 9.76993 1.19251 2 
54.280 45.336 10.01987 1.13866 2 
55.925 45.336 9.97656 1.09428 2 
57.570 45.336 9.92796 1.21360 2 
59.215 45.336 10.00251 1.31106 2 
60.860 45.336 10.27465 1.31973 2 
62.505 45.336 10.25904 1.31171 2 
64.150 45.336 10.24661 0.89603 2 
65.794 45.336 10.28682 0.98201 2 
67.439 45.336 10.40477 1.07819 2 
69.084 45.336 10.40430 1.21999 2 
70.729 45.336 10.51819 1.27795 2 
72.374 45.336 10.16577 1.23213 2 
74.019 45.336 10.55351 1.20322 2 
75.664 45.336 10.47728 1.07070 2 
77.308 45.336 10.41112 0.99569 2 
78.953 45.336 10.67831 1.13699 2 
80.598 45.336 10.54120 1.02411 2 
82.243 45.336 10.84748 0.99977 2 
83.888 45.336 10.75450 0.95711 2 
85.533 45.336 10.73377 0.88867 2 
87.178 45.336 10.90570 0.90367 2 
88.822 45.336 10.97829 0.91043 2 
90.467 45.336 11.18959 0.78307 2 
92.112 45.336 10.97756 0.96627 2 
93.757 45.336 11.06691 0.86581 2 
95.402 45.336 11.17669 0.75488 2 
97.047 45.336 11.04506 1.15296 2 
98.692 45.336 11.26573 0.91482 2 
100.336 45.336 11.59947 1.23284 2 
101.981 45.336 2.88814 0.21673 2 
103.626 45.336 0.00000 -0.00000 0 
105.271 45.336 0.00000 -0.00000 0 
106.916 45.336 6.38817 1.03321 2 
108.561 45.336 11.33043 0.86092 2 
110.206 45.336 11.07231 0.64437 2 
111.850 45.336 11.18862 0.68553 2 
113.495 45.336 11.42495 0.40010 2 
115.140 45.336 11.40782 -0.04129 2 
116.785 45.336 11.30899 0.08300 2 
118.430 45.336 11.31548 0.21369 2 
120.075 45.336 11.04882 0.19719 2 
121.720 45.336 11.16948 -0.19236 2 
123.364 45.336 11.39254 -0.06820 2 
125.009 45.336 11.23788 -0.06305 2 
126.654 45.336 11.07701 -0.06472 2 
128.299 45.336 11.15797 -0.15274 2 
129.944 45.336 11.30445 -0.45286 2 
131.589 45.336 11.07683 -0.50420 2 
133.234 45.336 11.15448 -0.51444 2 
134.879 45.336 11.11491 -0.51316 2 
136.523 45.336 10.94271 -0.46420 2 
138.168 45.336 10.83472 -0.46152 2 
139.813 45.336 10.95773 -0.39206 2 
141.458 45.336 10.81395 -0.40649 2 
143.103 45.336 10.90078 -0.70690 2 
144.748 45.336 10.88866 -0.81586 2 
146.393 45.336 11.10630 -0.59485 2 
148.037 45.336 10.65259 -0.86804 2 
149.682 45.336 10.72866 -0.78810 2 
151.327 45.336 10.91306 -0.94876 2 
152.972 45.336 0.00000 -0.00000 0 
-13.159 43.692 0.00000 -0.00000 0 
-11.514 43.692 9.23380 0.31374 2 
-9.869 43.692 9.19730 0.28747 2 
-8.224 43.692 9.22779 0.37295 2 
-6.579 43.692 9.01801 0.42577 2 
-4.935 43.692 9.23786 0.41885 2 
-3.290 43.692 9.12761 0.54777 2 
-1.645 43.692 9.24282 0.51379 2 
0.000 43.692 9.39108 0.59582 2 
1.645 43.692 9.05011 0.81798 2 
3.290 43.692 9.14702 0.81345 2 
4.935 43.692 0.00000 -0.00000 0 
6.579 43.692 0.00000 -0.00000 0 
8.224 43.692 0.00000 -0.00000 0 
9.869 43.692 0.00000 -0.00000 0 
11.514 43.692 0.00000 -0.00000 0 
13.159 43.692 0.00000 -0.00000 0 
14.804 43.692 0.00000 -0.00000 0 
16.449 43.692 0.00000 -0.00000 0 
18.093 43.692 0.00000 -0.00000 0 
19.738 43.692 0.00000 -0.00000 0 
21.383 43.692 0.00000 -0.00000 0 
23.028 43.692 4.92801 0.59313 2 
24.673 43.692 9.85603 1.18626 2 
26.318 43.692 9.78329 1.06230 2 
27.963 43.692 9.30379 0.88657 2 
29.607 43.692 9.19269 1.10911 2 
31.252 43.692 9.36389 1.14467 2 
32.897 43.692 9.33732 1.11901 2 
34.542 43.692 9.46370 1.10079 2 
36.187 43.692 9.57416 0.99706 2 
37.832 43.692 9.72779 1.21253 2 
39.477 43.692 9.72142 1.17985 2 
41.121 43.692 9.46227 1.31817 2 
42.766 43.692 9.63145 1.09542 2 
44.411 43.692 9.62673 1.21399 2 
46.056 43.692 9.56339 1.47708 2 
47.701 43.692 9.78761 1.46493 2 
49.346 43.692 10.10575 1.37715 2 
50.991 43.692 9.96685 1.14633 2 
52.636 43.692 9.80862 1.16224 2 
54.280 43.692 10.13322 1.35384 2 
55.925 43.692 10.13324 1.20175 2 
57.570 43.692 9.85132 1.21644 2 
59.215 43.692 9.81269 1.27762 2 
60.860 43.692 10.25315 1.03176 2 
62.505 43.692 10.43826 1.05190 2 
64.150 43.692 10.22168 1.27953 2 
65.794 43.692 10.42417 1.23005 2 
67.439 43.692 10.40268 1.16076 2 
69.084 43.692 10.31209 1.22974 2 
70.729 43.692 10.59524 1.11488 2 
72.374 43.692 10.46109 1.13580 2 
74.019 43.692 10.73842 1.06309 2 
75.664 43.692 10.36037 1.18103 2 
77.308 43.692 10.46877 1.02051 2 
78.953 43.692 10.69245 1.30756 2 
80.598 43.692 10.76524 1.08666 2 
82.243 43.692 10.89960 1.15336 2 
83.888 43.692 10.67752 1.04453 2 
85.533 43.692 10.87331 1.06638 2 
87.178 43.692 10.87081 1.22403 2 
88.822 43.692 10.91915 0.94056 2 
90.467 43.692 11.07205 0.99326 2 
92.112 43.692 11.03005 1.23971 2 
93.757 43.692 10.91778 1.19492 2 
95.402 43.692 11.25621 0.73436 2 
97.047 43.692 11.23017 0.79310 2 
98.692 43.692 11.23214 0.60507 2 
100.336 43.692 11.55257 0.86690 2 
101.981 43.692 5.77628 0.43345 2 
103.626 43.692 0.00000 -0.00000 0 
105.271 43.692 0.00000 -0.00000 0 
106.916 43.692 6.40108 0.69630 2 
108.561 43.692 11.54962 0.45351 2 
110.206 43.692 11.00491 0.56642 2 
111.850 43.692 11.56485 0.60562 2 
113.495 43.692 11.46565 0.37912 2 
115.140 43.692 11.40050 0.12380 2 
116.785 43.692 11.30101 0.15993 2 
118.430 43.692 11.22002 0.21665 2 
120.075 43.692 11.23419 0.12436 2 
121.720 43.692 11.23616 -0.23730 2 
123.364 43.692 11.38637 -0.22705 2 
125.009 43.692 11.13507 0.16775 2 
126.654 43.692 11.17909 -0.03662 2 
128.299 43.692 11.30026 -0.42657 2 
129.944 43.692 11.29105 -0.39776 2 
131.589 43.692 11.09955 -0.29562 2 
133.234 43.692 11.06389 -0.62719 2 
134.879 43.692 11.16204 -0.45339 2 
136.523 43.692 11.06136 -0.47432 2 
138.168 43.692 11.24401 -0.51140 2 
139.813 43.692 11.03276 -0.79948 2 
141.458 43.692 10.69956 -0.39973 2 
143.103 43.692 10.84746 -0.75740 2 
144.748 43.692 10.77739 -0.84270 2 
146.393 43.692 11.06391 -0.62478 2 
148.037 43.692 10.91251 -0.78542 2 
149.682 43.692 11.06647 -0.54573 2 
151.327 43.692 11.19272 -1.18414 2 
152.972 43.692 0.00000 -0.00000 0 
-13.159 42.047 0.00000 -0.00000 0 
-11.514 42.047 9.25436 0.18722 2 
-9.869 42.047 9.27646 0.35328 2 
-8.224 42.047 9.27508 0.48607 2 
-6.579 42.047 8.90876 0.33609 2 
-4.935 42.047 8.99548 0.44017 2 
-3.290 42.047 9.01088 0.54404 2 
-1.645 42.047 9.12500 0.59133 2 
0.000 42.047 9.29714 0.68516 2 
1.645 42.047 9.10580 0.74533 2 
3.290 42.047 9.15389 0.70342 2 
4.935 42.047 0.00000 -0.00000 0 
6.579 42.047 0.00000 -0.00000 0 
8.224 42.047 0.00000 -0.00000 0 
9.869 42.047 0.00000 -0.00000 0 
11.514 42.047 0.00000 -0.00000 0 
13.159 42.047 0.00000 -0.00000 0 
14.804 42.047 0.00000 -0.00000 0 
16.449 42.047 0.00000 -0.00000 0 
18.093 42.047 0.00000 -0.00000 0 
19.738 42.047 0.00000 -0.00000 0 
21.383 42.047 0.00000 -0.00000 0 
23.028 42.047 4.69745 0.24759 2 
24.673 42.047 9.39491 0.49518 2 
26.318 42.047 9.20590 0.88178 2 
27.963 42.047 9.45554 0.94603 2 
29.607 42.047 9.33282 1.13303 2 
31.252 42.047 9.43012 1.13649 2 
32.897 42.047 9.48323 1.23345 2 
34.542 42.047 9.43132 1.21503 2 
36.187 42.047 9.63097 1.20796 2 
37.832 42.047 9.56011 1.11513 2 
39.477 42.047 9.52534 1.25173 2 
41.121 42.047 9.34521 1.42461 2 
42.766 42.047 9.62193 1.19968 2 
44.411 42.047 9.70527 1.20328 2 
46.056 42.047 9.64448 1.29286 2 
47.701 42.047 9.85562 1.47134 2 
49.346 42.047 9.85113 1.29914 2 
50.991 42.047 9.84899 1.25895 2 
52.636 42.047 10.01663 1.42291 2 
54.280 42.047 10.19228 1.27754 2 
55.925 42.047 10.09413 1.46298 2 
57.570 42.047 9.93566 1.34784 2 
59.215 42.047 10.20816 1.41051 2 
60.860 42.047 10.13314 1.11231 2 
62.505 42.047 10.28745 1.14827 2 
64.150 42.047 10.22439 1.25720 2 
65.794 42.047 10.44550 1.29593 2 
67.439 42.047 10.19840 1.45334 2 
69.084 42.047 10.23457 1.32312 2 
70.729 42.047 10.54152 1.30742 2 
72.374 42.047 10.77199 1.30800 2 
74.019 42.047 10.77340 1.30948 2 
75.664 42.047 10.49077 1.10906 2 
77.308 42.047 10.58938 1.21769 2 
78.953 42.047 10.68059 1.29501 2 
80.598 42.047 10.87686 1.08388 2 
82.243 42.047 10.91062 1.19914 2 
83.888 42.047 10.74314 1.35894 2 
85.533 42.047 11.09769 1.27051 2 
87.178 42.047 10.91076 1.27329 2 
88.822 42.047 10.79844 1.09285 2 
90.467 42.047 11.10339 1.13884 2 
92.112 42.047 11.29262 0.84245 2 
93.757 42.047 10.99679 1.03474 2 
95.402 42.047 11.03313 0.89634 2 
97.047 42.047 11.15979 0.92902 2 
98.692 42.047 10.90431 0.73894 2 
100.336 42.047 11.80570 0.38296 2 
101.981 42.047 5.90285 0.19148 2 
103.626 42.047 0.00000 -0.00000 0 
105.271 42.047 0.00000 -0.00000 0 
106.916 42.047 6.37585 0.21475 2 
108.561 42.047 11.37257 0.36860 2 
110.206 42.047 11.34019 0.67430 2 
111.850 42.047 11.36972 0.53828 2 
113.495 42.047 11.28501 0.51659 2 
115.140 42.047 11.49173 0.31840 2 
116.785 42.047 11.50032 0.27371 2 
118.430 42.047 11.45513 0.33832 2 
120.075 42.047 11.60452 0.19581 2 
121.720 42.047 11.49804 -0.17326 2 
123.364 42.047 11.13263 -0.19303 2 
125.009 42.047 11.42725 -0.14335 2 
126.654 42.047 11.32344 -0.10874 2 
128.299 42.047 11.34969 -0.47056 2 
129.944 42.047 11.08566 -0.58386 2 
131.589 42.047 11.03893 -0.34922 2 
133.234 42.047 11.38525 -0.63588 2 
134.879 42.047 11.11929 -0.62747 2 
136.523 42.047 11.11168 -0.35984 2 
138.168 42.047 11.18183 -0.34299 2 
139.813 42.047 11.34206 -0.56302 2 
141.458 42.047 11.26736 -0.59379 2 
143.103 42.047 10.78246 -0.82107 2 
144.748 42.047 10.85469 -0.98261 2 
146.393 42.047 10.71863 -0.94709 2 
148.037 42.047 10.96523 -0.80119 2 
149.682 42.047 11.06981 -0.74940 2 
151.327 42.047 11.47236 -0.84076 2 
152.972 42.047 0.00000 -0.00000 0 
-13.159 40.402 0.00000 -0.00000 0 
-11.514 40.402 9.38170 0.14847 2 
-9.869 40.402 9.13449 0.31056 2 
-8.224 40.402 9.06268 0.56598 2 
-6.579 40.402 9.02773 0.48315 2 
-4.935 40.402 9.01432 0.50549 2 
-3.290 40.402 8.90335 0.53251 2 
-1.645 40.402 9.10101 0.56127 2 
0.000 40.402 9.23537 0.56432 2 
1.645 40.402 9.10819 0.61216 2 
3.290 40.402 9.33840 0.94919 2 
4.935 40.402 0.00000 -0.00000 0 
6.579 40.402 0.00000 -0.00000 0 
8.224 40.402 0.00000 -0.00000 0 
9.869 40.402 0.00000 -0.00000 0 
11.514 40.402 0.00000 -0.00000 0 
13.159 40.402 0.00000 -0.00000 0 
14.804 40.402 0.00000 -0.00000 0 
16.449 40.402 0.00000 -0.00000 0 
18.093 40.402 0.00000 -0.00000 0 
19.738 40.402 0.00000 -0.00000 0 
21.383 40.402 0.00000 -0.00000 0 
23.028 40.402 1.90556 0.67411 2 
24.673 40.402 9.61541 0.90017 2 
26.318 40.402 9.20417 1.07624 2 
27.963 40.402 9.54087 1.01473 2 
29.607 40.402 9.47296 1.15695 2 
31.252 40.402 9.49635 1.12832 2 
32.897 40.402 9.49809 1.35872 2 
34.542 40.402 9.39562 1.25845 2 
36.187 40.402 9.33746 1.38033 2 
37.832 40.402 9.47922 1.17677 2 
39.477 40.402 9.34528 1.31931 2 
41.121 40.402 9.49995 1.16931 2 
42.766 40.402 9.50586 1.25094 2 
44.411 40.402 9.66971 1.37933 2 
46.056 40.402 9.90462 1.14573 2 
47.701 40.402 10.00144 1.38744 2 
49.346 40.402 9.79129 1.29744 2 
50.991 40.402 9.80769 1.47579 2 
52.636 40.402 9.93806 1.56407 2 
54.280 40.402 10.25134 1.20124 2 
55.925 40.402 9.86784 1.08371 2 
57.570 40.402 10.15160 1.45319 2 
59.215 40.402 10.33621 1.47731 2 
60.860 40.402 10.11077 1.09526 2 
62.505 40.402 10.10576 1.01824 2 
64.150 40.402 10.22710 1.23487 2 
65.794 40.402 10.39344 1.15664 2 
67.439 40.402 10.23610 1.32136 2 
69.084 40.402 10.32706 1.18955 2 
70.729 40.402 10.48779 1.49996 2 
72.374 40.402 10.29479 1.28174 2 
74.019 40.402 10.62178 1.36557 2 
75.664 40.402 10.55552 1.34544 2 
77.308 40.402 10.43643 1.42537 2 
78.953 40.402 10.78916 1.17455 2 
80.598 40.402 10.79741 1.04880 2 
82.243 40.402 10.84490 1.02146 2 
83.888 40.402 10.92737 1.11110 2 