TITLE = "B00011"
VARIABLES = "X [mm]", "Y [mm]", "Vx [m/s]", "Vy [m/s]", "Flag"
ZONE T="Frame 1", I=102, J=77, F=POINT
-13.159 53.561 0.00000 -0.00000 0 
-11.514 53.561 0.00000 -0.00000 0 
-9.869 53.561 0.00000 -0.00000 0 
-8.224 53.561 0.00000 -0.00000 0 
-6.579 53.561 9.21199 -0.12825 2 
-4.935 53.561 9.17068 -0.05642 2 
-3.290 53.561 7.33655 -0.04514 2 
-1.645 53.561 5.50241 -0.03385 2 
0.000 53.561 3.66827 -0.02257 2 
1.645 53.561 1.83414 -0.01128 2 
3.290 53.561 0.00000 -0.00000 0 
4.935 53.561 0.00000 -0.00000 0 
6.579 53.561 0.00000 -0.00000 0 
8.224 53.561 0.00000 -0.00000 0 
9.869 53.561 0.00000 -0.00000 0 
11.514 53.561 0.00000 -0.00000 0 
13.159 53.561 0.00000 -0.00000 0 
14.804 53.561 0.00000 -0.00000 0 
16.449 53.561 0.00000 -0.00000 0 
18.093 53.561 0.00000 -0.00000 0 
19.738 53.561 0.00000 -0.00000 0 
21.383 53.561 0.00000 -0.00000 0 
23.028 53.561 0.16949 0.49803 2 
24.673 53.561 -0.17142 0.22467 2 
26.318 53.561 6.93412 0.34774 2 
27.963 53.561 7.15635 0.36900 2 
29.607 53.561 7.37858 0.39026 2 
31.252 53.561 7.60081 0.41152 2 
32.897 53.561 7.82303 0.43278 2 
34.542 53.561 8.04526 0.45404 2 
36.187 53.561 8.26749 0.47529 2 
37.832 53.561 8.48972 0.49655 2 
39.477 53.561 8.71195 0.51781 2 
41.121 53.561 8.93418 0.53907 2 
42.766 53.561 9.15641 0.56033 2 
44.411 53.561 9.37864 0.58159 2 
46.056 53.561 9.60087 0.60285 2 
47.701 53.561 9.82310 0.62410 2 
49.346 53.561 10.04533 0.64536 2 
50.991 53.561 9.80979 0.70544 2 
52.636 53.561 9.85618 0.67493 2 
54.280 53.561 9.90257 0.64441 2 
55.925 53.561 9.94896 0.61389 2 
57.570 53.561 9.99535 0.58337 2 
59.215 53.561 10.04174 0.55285 2 
60.860 53.561 10.08813 0.52233 2 
62.505 53.561 10.13452 0.49181 2 
64.150 53.561 10.18091 0.46129 2 
65.794 53.561 10.22730 0.43077 2 
67.439 53.561 10.27369 0.40025 2 
69.084 53.561 10.32009 0.36974 2 
70.729 53.561 10.36648 0.33922 2 
72.374 53.561 10.41287 0.30870 2 
74.019 53.561 10.45926 0.27818 2 
75.664 53.561 10.50565 0.24766 2 
77.308 53.561 10.55204 0.21714 2 
78.953 53.561 10.59843 0.18662 2 
80.598 53.561 10.64482 0.15610 2 
82.243 53.561 10.69121 0.12558 2 
83.888 53.561 10.73760 0.09506 2 
85.533 53.561 10.78399 0.06455 2 
87.178 53.561 10.83039 0.03403 2 
88.822 53.561 10.80823 0.04836 2 
90.467 53.561 10.78608 0.06269 2 
92.112 53.561 10.76393 0.07703 2 
93.757 53.561 10.74178 0.09136 2 
95.402 53.561 10.71963 0.10569 2 
97.047 53.561 10.69748 0.12002 2 
98.692 53.561 10.81890 -0.11939 2 
100.336 53.561 5.40945 -0.05969 2 
101.981 53.561 0.00000 -0.00000 0 
103.626 53.561 0.00000 -0.00000 0 
105.271 53.561 0.00000 -0.00000 0 
106.916 53.561 6.49399 0.23659 2 
108.561 53.561 11.55271 0.29404 2 
110.206 53.561 11.05229 0.56976 2 
111.850 53.561 11.02248 0.38934 2 
113.495 53.561 11.04657 0.32233 2 
115.140 53.561 11.07691 0.09558 2 
116.785 53.561 11.00061 0.15343 2 
118.430 53.561 11.26507 0.36859 2 
120.075 53.561 11.11375 0.14437 2 
121.720 53.561 11.09316 0.08949 2 
123.364 53.561 10.87146 0.14999 2 
125.009 53.561 11.19734 0.27626 2 
126.654 53.561 11.09685 0.06569 2 
128.299 53.561 11.15225 0.09428 2 
129.944 53.561 11.24694 0.04066 2 
131.589 53.561 11.08290 -0.17579 2 
133.234 53.561 11.01415 -0.27087 2 
134.879 53.561 11.18151 -0.21858 2 
136.523 53.561 10.89552 -0.23459 2 
138.168 53.561 10.93449 -0.18872 2 
139.813 53.561 10.89079 -0.22175 2 
141.458 53.561 10.99807 -0.24087 2 
143.103 53.561 11.10083 -0.17599 2 
144.748 53.561 11.00384 -0.09705 2 
146.393 53.561 10.90263 -0.13928 2 
148.037 53.561 10.97648 -0.21276 2 
149.682 53.561 10.61933 -0.13029 2 
151.327 53.561 11.34553 0.00018 2 
152.972 53.561 0.00000 -0.00000 0 
-13.159 51.916 0.00000 -0.00000 0 
-11.514 51.916 10.03044 0.63803 2 
-9.869 51.916 9.26835 0.38062 2 
-8.224 51.916 9.39114 0.53468 2 
-6.579 51.916 9.28284 0.62968 2 
-4.935 51.916 9.21491 0.59280 2 
-3.290 51.916 9.23764 0.56503 2 
-1.645 51.916 9.22724 0.65181 2 
0.000 51.916 9.97096 0.88184 2 
1.645 51.916 4.98548 0.44092 2 
3.290 51.916 0.00000 -0.00000 0 
4.935 51.916 0.00000 -0.00000 0 
6.579 51.916 0.00000 -0.00000 0 
8.224 51.916 0.00000 -0.00000 0 
9.869 51.916 0.00000 -0.00000 0 
11.514 51.916 0.00000 -0.00000 0 
13.159 51.916 0.00000 -0.00000 0 
14.804 51.916 0.00000 -0.00000 0 
16.449 51.916 0.00000 -0.00000 0 
18.093 51.916 0.00000 -0.00000 0 
19.738 51.916 0.00000 -0.00000 0 
21.383 51.916 0.00000 -0.00000 0 
23.028 51.916 -0.08571 0.11233 2 
24.673 51.916 5.20014 0.51274 2 
26.318 51.916 10.48599 0.91315 2 
27.963 51.916 9.77129 1.20058 2 
29.607 51.916 9.74535 1.40798 2 
31.252 51.916 9.61587 1.13776 2 
32.897 51.916 9.98744 0.85778 2 
34.542 51.916 10.23019 1.20610 2 
36.187 51.916 10.00151 1.14902 2 
37.832 51.916 9.77282 1.09194 2 
39.477 51.916 9.90015 1.22758 2 
41.121 51.916 10.04097 1.21494 2 
42.766 51.916 10.18179 1.20230 2 
44.411 51.916 9.88112 1.24920 2 
46.056 51.916 9.91022 1.39260 2 
47.701 51.916 9.92081 1.16890 2 
49.346 51.916 9.67867 1.27572 2 
50.991 51.916 9.65690 1.22177 2 
52.636 51.916 10.08139 1.09215 2 
54.280 51.916 10.13694 1.34415 2 
55.925 51.916 9.99589 1.09271 2 
57.570 51.916 10.23578 1.11256 2 
59.215 51.916 9.96477 1.35809 2 
60.860 51.916 10.01907 1.35093 2 
62.505 51.916 10.00037 1.26762 2 
64.150 51.916 10.28980 1.15290 2 
65.794 51.916 10.18616 1.50293 2 
67.439 51.916 10.48432 1.07986 2 
69.084 51.916 10.25053 1.14722 2 
70.729 51.916 10.34159 1.17685 2 
72.374 51.916 10.51183 1.15764 2 
74.019 51.916 10.43901 1.23295 2 
75.664 51.916 10.37723 1.31383 2 
77.308 51.916 10.63389 1.28186 2 
78.953 51.916 10.52576 1.13651 2 
80.598 51.916 10.60941 1.26313 2 
82.243 51.916 10.77605 1.42628 2 
83.888 51.916 10.46948 1.01893 2 
85.533 51.916 10.53906 1.32172 2 
87.178 51.916 10.67117 1.25079 2 
88.822 51.916 10.80047 1.17761 2 
90.467 51.916 10.88263 1.12016 2 
92.112 51.916 10.70472 1.26793 2 
93.757 51.916 10.72948 1.18868 2 
95.402 51.916 10.99004 0.89762 2 
97.047 51.916 10.91738 1.05120 2 
98.692 51.916 11.13207 0.70900 2 
100.336 51.916 5.56603 0.35450 2 
101.981 51.916 0.00000 -0.00000 0 
103.626 51.916 0.00000 -0.00000 0 
105.271 51.916 0.00000 -0.00000 0 
106.916 51.916 6.88257 0.73426 2 
108.561 51.916 11.99384 0.54938 2 
110.206 51.916 11.08207 0.68781 2 
111.850 51.916 11.28243 0.46530 2 
113.495 51.916 11.08882 0.22533 2 
115.140 51.916 10.91144 0.42171 2 
116.785 51.916 10.94860 0.63231 2 
118.430 51.916 11.19209 0.37431 2 
120.075 51.916 11.03933 0.22157 2 
121.720 51.916 11.07221 0.52758 2 
123.364 51.916 11.10241 0.21892 2 
125.009 51.916 11.14456 0.28763 2 
126.654 51.916 11.00185 0.12127 2 
128.299 51.916 11.10206 0.23609 2 
129.944 51.916 11.18290 -0.16519 2 
131.589 51.916 10.90072 -0.26964 2 
133.234 51.916 10.96712 -0.41838 2 
134.879 51.916 11.13085 -0.01639 2 
136.523 51.916 11.13292 -0.20994 2 
138.168 51.916 11.20701 -0.61517 2 
139.813 51.916 10.99486 -0.75254 2 
141.458 51.916 11.27857 -0.58035 2 
143.103 51.916 10.75309 -0.42803 2 
144.748 51.916 10.89172 -0.28427 2 
146.393 51.916 10.67215 -0.38400 2 
148.037 51.916 11.10627 -0.83247 2 
149.682 51.916 10.64651 -0.90394 2 
151.327 51.916 11.42610 -0.37587 2 
152.972 51.916 0.00000 -0.00000 0 
-13.159 50.271 0.00000 -0.00000 0 
-11.514 50.271 9.62864 0.55570 2 
-9.869 50.271 9.12190 0.27532 2 
-8.224 50.271 9.32521 0.36926 2 
-6.579 50.271 9.35309 0.55496 2 
-4.935 50.271 9.40669 0.64627 2 
-3.290 50.271 9.24489 0.37341 2 
-1.645 50.271 9.42670 0.28170 2 
0.000 50.271 9.46476 0.62353 2 
1.645 50.271 4.73238 0.31177 2 
3.290 50.271 0.00000 -0.00000 0 
4.935 50.271 0.00000 -0.00000 0 
6.579 50.271 0.00000 -0.00000 0 
8.224 50.271 0.00000 -0.00000 0 
9.869 50.271 0.00000 -0.00000 0 
11.514 50.271 0.00000 -0.00000 0 
13.159 50.271 0.00000 -0.00000 0 
14.804 50.271 0.00000 -0.00000 0 
16.449 50.271 0.00000 -0.00000 0 
18.093 50.271 0.00000 -0.00000 0 
19.738 50.271 0.00000 -0.00000 0 
21.383 50.271 0.00000 -0.00000 0 
23.028 50.271 1.64361 0.23804 2 
24.673 50.271 7.10017 0.60946 2 
26.318 50.271 10.65026 0.91420 2 
27.963 50.271 9.45898 0.85570 2 
29.607 50.271 9.47932 0.99225 2 
31.252 50.271 9.46651 1.05644 2 
32.897 50.271 9.64958 1.08587 2 
34.542 50.271 9.65569 1.08298 2 
36.187 50.271 9.74463 1.21374 2 
37.832 50.271 9.38043 1.15915 2 
39.477 50.271 9.69032 1.27954 2 
41.121 50.271 9.78252 1.14195 2 
42.766 50.271 9.71809 0.94773 2 
44.411 50.271 9.85821 1.01339 2 
46.056 50.271 9.87210 1.13920 2 
47.701 50.271 9.80681 1.01057 2 
49.346 50.271 9.80104 0.88212 2 
50.991 50.271 9.99490 1.08161 2 
52.636 50.271 10.24124 1.03586 2 
54.280 50.271 10.13494 1.18361 2 
55.925 50.271 10.07300 1.10921 2 
57.570 50.271 10.24450 0.92363 2 
59.215 50.271 10.19440 1.10060 2 
60.860 50.271 10.30660 1.16364 2 
62.505 50.271 10.10140 1.34722 2 
64.150 50.271 10.38435 1.05870 2 
65.794 50.271 10.25112 1.27600 2 
67.439 50.271 10.42671 1.01340 2 
69.084 50.271 10.23683 1.16737 2 
70.729 50.271 10.69395 1.08615 2 
72.374 50.271 10.49119 1.04155 2 
74.019 50.271 10.38451 0.78399 2 
75.664 50.271 10.33314 0.93268 2 
77.308 50.271 10.60721 0.87855 2 
78.953 50.271 10.48695 1.14934 2 
80.598 50.271 10.62670 0.99818 2 
82.243 50.271 10.82676 1.04502 2 
83.888 50.271 10.64127 0.74255 2 
85.533 50.271 10.68933 1.28386 2 
87.178 50.271 10.62458 1.31518 2 
88.822 50.271 10.69615 0.63631 2 
90.467 50.271 10.79015 0.74250 2 
92.112 50.271 10.60973 1.13823 2 
93.757 50.271 10.71721 1.09516 2 
95.402 50.271 10.90696 0.77256 2 
97.047 50.271 10.76936 0.86637 2 
98.692 50.271 11.45830 0.89384 2 
100.336 50.271 5.72915 0.44692 2 
101.981 50.271 0.00000 -0.00000 0 
103.626 50.271 0.00000 -0.00000 0 
105.271 50.271 0.00000 -0.00000 0 
106.916 50.271 6.06647 0.18782 2 
108.561 50.271 11.71962 0.54563 2 
110.206 50.271 11.04384 0.43581 2 
111.850 50.271 11.08535 0.23969 2 
113.495 50.271 11.13106 0.12833 2 
115.140 50.271 11.00397 0.31441 2 
116.785 50.271 11.01841 0.20731 2 
118.430 50.271 11.40414 0.35435 2 
120.075 50.271 11.00416 0.17021 2 
121.720 50.271 11.23208 0.44211 2 
123.364 50.271 11.33336 0.28784 2 
125.009 50.271 11.17434 0.23293 2 
126.654 50.271 11.20217 -0.19036 2 
128.299 50.271 11.12396 -0.31224 2 
129.944 50.271 11.21237 -0.16903 2 
131.589 50.271 11.09607 0.08386 2 
133.234 50.271 11.18339 -0.09359 2 
134.879 50.271 10.89771 0.02255 2 
136.523 50.271 11.13436 -0.27240 2 
138.168 50.271 11.12072 -0.37342 2 
139.813 50.271 10.75121 -0.48545 2 
141.458 50.271 10.98128 -0.33607 2 
143.103 50.271 10.74368 -0.40043 2 
144.748 50.271 10.85021 -0.50128 2 
146.393 50.271 10.92514 -0.58506 2 
148.037 50.271 10.84995 -0.75336 2 
149.682 50.271 10.88931 -0.61740 2 
151.327 50.271 11.34832 -0.48153 2 
152.972 50.271 0.00000 -0.00000 0 
-13.159 48.626 0.00000 -0.00000 0 
-11.514 48.626 9.38806 0.53326 2 
-9.869 48.626 9.25346 0.49212 2 
-8.224 48.626 9.27110 0.52012 2 
-6.579 48.626 9.36752 0.72719 2 
-4.935 48.626 9.12605 0.61824 2 
-3.290 48.626 9.30092 0.54045 2 
-1.645 48.626 9.40159 0.47683 2 
0.000 48.626 9.16926 0.67180 2 
1.645 48.626 9.75812 0.99221 2 
3.290 48.626 0.00000 -0.00000 0 
4.935 48.626 0.00000 -0.00000 0 
6.579 48.626 0.00000 -0.00000 0 
8.224 48.626 0.00000 -0.00000 0 
9.869 48.626 0.00000 -0.00000 0 
11.514 48.626 0.00000 -0.00000 0 
13.159 48.626 0.00000 -0.00000 0 
14.804 48.626 0.00000 -0.00000 0 
16.449 48.626 0.00000 -0.00000 0 
18.093 48.626 0.00000 -0.00000 0 
19.738 48.626 0.00000 -0.00000 0 
21.383 48.626 0.00000 -0.00000 0 
23.028 48.626 3.37292 0.36374 2 
24.673 48.626 6.74585 0.72749 2 
26.318 48.626 10.11877 1.09123 2 
27.963 48.626 9.08704 0.99550 2 
29.607 48.626 9.31004 1.09842 2 
31.252 48.626 9.68378 1.24790 2 
32.897 48.626 9.43029 1.27231 2 
34.542 48.626 9.80716 1.21046 2 
36.187 48.626 9.79377 1.12183 2 
37.832 48.626 9.67785 0.98377 2 
39.477 48.626 9.67165 1.07758 2 
41.121 48.626 9.93302 1.27435 2 
42.766 48.626 9.69526 1.04833 2 
44.411 48.626 9.84963 1.09141 2 
46.056 48.626 9.85032 1.21359 2 
47.701 48.626 9.69354 1.19763 2 
49.346 48.626 9.87193 1.06041 2 
50.991 48.626 9.98202 1.14714 2 
52.636 48.626 9.92380 1.17857 2 
54.280 48.626 10.05974 1.01774 2 
55.925 48.626 10.24203 1.03082 2 
57.570 48.626 10.08240 1.14400 2 
59.215 48.626 10.09884 1.04527 2 
60.860 48.626 10.39676 1.06731 2 
62.505 48.626 10.23825 1.31289 2 
64.150 48.626 10.27299 0.95175 2 
65.794 48.626 10.57729 1.29015 2 
67.439 48.626 10.31444 1.11554 2 
69.084 48.626 10.54865 1.18137 2 
70.729 48.626 10.73420 1.16728 2 
72.374 48.626 10.45056 1.03893 2 
74.019 48.626 10.46958 0.87343 2 
75.664 48.626 10.49006 1.04048 2 
77.308 48.626 10.68342 1.16541 2 
78.953 48.626 10.68737 1.02341 2 
80.598 48.626 10.66043 1.06442 2 
82.243 48.626 10.88174 1.19309 2 
83.888 48.626 10.89511 1.12424 2 
85.533 48.626 10.98881 1.14153 2 
87.178 48.626 10.79776 1.01240 2 
88.822 48.626 10.78371 0.99374 2 
90.467 48.626 10.70544 0.90756 2 
92.112 48.626 10.90372 0.85097 2 
93.757 48.626 11.00009 0.84614 2 
95.402 48.626 10.74889 0.58868 2 
97.047 48.626 10.71603 0.71734 2 
98.692 48.626 11.28154 0.69363 2 
100.336 48.626 11.17776 0.72520 2 
101.981 48.626 0.00000 -0.00000 0 
103.626 48.626 0.00000 -0.00000 0 
105.271 48.626 0.00000 -0.00000 0 
106.916 48.626 5.59879 0.42825 2 
108.561 48.626 11.37263 0.57687 2 
110.206 48.626 11.33977 0.40367 2 
111.850 48.626 11.30362 0.61134 2 
113.495 48.626 11.25478 0.46670 2 
115.140 48.626 11.27065 0.32025 2 
116.785 48.626 11.00044 0.28221 2 
118.430 48.626 11.44828 0.43193 2 
120.075 48.626 11.23032 0.13127 2 
121.720 48.626 11.17579 0.21214 2 
123.364 48.626 11.26079 0.24946 2 
125.009 48.626 11.15354 0.02833 2 
126.654 48.626 11.20528 -0.10120 2 
128.299 48.626 11.27939 -0.27508 2 
129.944 48.626 11.12219 -0.16713 2 
131.589 48.626 11.24076 0.01308 2 
133.234 48.626 11.34696 -0.16346 2 
134.879 48.626 10.96730 -0.09709 2 
136.523 48.626 10.81720 -0.38433 2 
138.168 48.626 10.89730 -0.33117 2 
139.813 48.626 10.84789 -0.29363 2 
141.458 48.626 11.18952 -0.49985 2 
143.103 48.626 11.09887 -0.46135 2 
144.748 48.626 10.70780 -0.79158 2 
146.393 48.626 10.88428 -0.47641 2 
148.037 48.626 10.77918 -0.63203 2 
149.682 48.626 11.09331 -0.53492 2 
151.327 48.626 10.77169 -0.76201 2 
152.972 48.626 0.00000 -0.00000 0 
-13.159 46.981 0.00000 -0.00000 0 
-11.514 46.981 9.14749 0.51083 2 
-9.869 46.981 9.19591 0.35172 2 
-8.224 46.981 9.20526 0.42644 2 
-6.579 46.981 9.28074 0.52726 2 
-4.935 46.981 9.18991 0.48937 2 
-3.290 46.981 9.19172 0.57302 2 
-1.645 46.981 9.29788 0.55028 2 
0.000 46.981 9.21106 0.75455 2 
1.645 46.981 9.58708 0.82204 2 
3.290 46.981 0.00000 -0.00000 0 
4.935 46.981 0.00000 -0.00000 0 
6.579 46.981 0.00000 -0.00000 0 
8.224 46.981 0.00000 -0.00000 0 
9.869 46.981 0.00000 -0.00000 0 
11.514 46.981 0.00000 -0.00000 0 
13.159 46.981 0.00000 -0.00000 0 
14.804 46.981 0.00000 -0.00000 0 
16.449 46.981 0.00000 -0.00000 0 
18.093 46.981 0.00000 -0.00000 0 
19.738 46.981 0.00000 -0.00000 0 
21.383 46.981 0.00000 -0.00000 0 
23.028 46.981 5.06168 0.70318 2 
24.673 46.981 8.43460 1.06692 2 
26.318 46.981 9.88453 1.28056 2 
27.963 46.981 9.30387 0.99343 2 
29.607 46.981 9.39389 1.07987 2 
31.252 46.981 9.76922 0.99359 2 
32.897 46.981 9.35242 0.96861 2 
34.542 46.981 9.69269 0.92234 2 
36.187 46.981 9.54188 0.84916 2 
37.832 46.981 9.64445 1.01254 2 
39.477 46.981 9.77707 1.18394 2 
41.121 46.981 9.89112 1.30369 2 
42.766 46.981 9.73148 1.31314 2 
44.411 46.981 9.71232 1.32718 2 
46.056 46.981 9.88825 1.29768 2 
47.701 46.981 9.79763 1.34040 2 
49.346 46.981 9.99326 1.34565 2 
50.991 46.981 9.98139 0.97515 2 
52.636 46.981 9.85120 1.07309 2 
54.280 46.981 10.09283 0.95844 2 
55.925 46.981 10.32872 1.22863 2 
57.570 46.981 9.98412 1.39734 2 
59.215 46.981 9.92921 1.24970 2 
60.860 46.981 10.29934 1.07334 2 
62.505 46.981 10.11773 1.18865 2 
64.150 46.981 10.01875 1.20725 2 
65.794 46.981 10.53280 1.50513 2 
67.439 46.981 10.13284 1.33263 2 
69.084 46.981 10.36177 0.93600 2 
70.729 46.981 10.69664 1.11689 2 
72.374 46.981 10.51643 1.20283 2 
74.019 46.981 10.53872 1.12862 2 
75.664 46.981 10.50017 1.01442 2 
77.308 46.981 10.66359 1.08621 2 
78.953 46.981 10.72795 1.14086 2 
80.598 46.981 10.57722 1.17382 2 
82.243 46.981 11.00311 1.05260 2 
83.888 46.981 10.83758 1.01779 2 
85.533 46.981 10.78908 0.87082 2 
87.178 46.981 11.02593 0.94161 2 
88.822 46.981 10.87257 1.13871 2 
90.467 46.981 10.92917 0.65235 2 
92.112 46.981 10.87725 0.74263 2 
93.757 46.981 11.14383 0.97971 2 
95.402 46.981 10.98201 0.71241 2 
97.047 46.981 11.15190 0.85722 2 
98.692 46.981 10.83798 0.93693 2 
100.336 46.981 11.77100 0.98756 2 
101.981 46.981 0.00000 -0.00000 0 
103.626 46.981 0.00000 -0.00000 0 
105.271 46.981 0.00000 -0.00000 0 
106.916 46.981 5.63755 0.91912 2 
108.561 46.981 11.38438 0.88819 2 
110.206 46.981 11.31196 0.65633 2 
111.850 46.981 11.38160 0.64254 2 
113.495 46.981 11.36673 0.67991 2 
115.140 46.981 11.33024 0.46030 2 
116.785 46.981 11.14880 0.41265 2 
118.430 46.981 11.22381 0.18132 2 
120.075 46.981 11.30725 0.08333 2 
121.720 46.981 11.31350 0.18758 2 
123.364 46.981 11.08331 0.27959 2 
125.009 46.981 11.23227 -0.04381 2 
126.654 46.981 11.23783 0.21264 2 
128.299 46.981 11.23705 -0.03528 2 
129.944 46.981 10.95063 0.07763 2 
131.589 46.981 11.16743 -0.12836 2 
133.234 46.981 11.24497 -0.32173 2 
134.879 46.981 11.11356 -0.25751 2 
136.523 46.981 11.04266 -0.32196 2 
138.168 46.981 11.40658 -0.68208 2 
139.813 46.981 11.16329 -0.54952 2 
141.458 46.981 11.38969 -0.55999 2 
143.103 46.981 11.08033 -0.48964 2 
144.748 46.981 10.96258 -0.51335 2 
146.393 46.981 10.79167 -0.55527 2 
148.037 46.981 10.83082 -0.51530 2 
149.682 46.981 11.16936 -0.58343 2 
151.327 46.981 10.84852 -0.83953 2 
152.972 46.981 0.00000 -0.00000 0 
-13.159 45.336 0.00000 -0.00000 0 
-11.514 45.336 9.23541 0.29004 2 
-9.869 45.336 9.30853 0.31314 2 
-8.224 45.336 9.27904 0.51941 2 
-6.579 45.336 9.30729 0.45384 2 
-4.935 45.336 9.38890 0.66482 2 
-3.290 45.336 9.29584 0.66385 2 
-1.645 45.336 9.11623 0.62607 2 
0.000 45.336 9.11734 0.47332 2 
1.645 45.336 9.41603 0.65188 2 
3.290 45.336 4.57196 0.42209 2 
4.935 45.336 0.00000 -0.00000 0 
6.579 45.336 0.00000 -0.00000 0 
8.224 45.336 0.00000 -0.00000 0 
9.869 45.336 0.00000 -0.00000 0 
11.514 45.336 0.00000 -0.00000 0 
13.159 45.336 0.00000 -0.00000 0 
14.804 45.336 0.00000 -0.00000 0 
16.449 45.336 0.00000 -0.00000 0 
18.093 45.336 0.00000 -0.00000 0 
19.738 45.336 0.00000 -0.00000 0 
21.383 45.336 0.00000 -0.00000 0 
23.028 45.336 5.06168 0.70318 2 
24.673 45.336 10.12336 1.40636 2 
26.318 45.336 9.43124 1.03311 2 
27.963 45.336 9.42434 0.88208 2 
29.607 45.336 9.36325 1.04323 2 
31.252 45.336 9.75121 1.11030 2 
32.897 45.336 9.53848 1.10065 2 
34.542 45.336 9.60728 0.82217 2 
36.187 45.336 9.48277 0.91652 2 
37.832 45.336 9.59018 1.02118 2 
39.477 45.336 9.43247 1.40134 2 
41.121 45.336 9.84922 1.33303 2 
42.766 45.336 9.59894 1.17816 2 
44.411 45.336 9.71553 1.27547 2 
46.056 45.336 9.83488 1.27100 2 
47.701 45.336 9.81854 1.18599 2 
49.346 45.336 9.82525 1.46878 2 
50.991 45.336 10.11344 1.25196 2 
52.636 45.336 10.12828 1.25468 2 
54.280 45.336 9.99299 1.31064 2 
55.925 45.336 10.22344 1.26930 2 
57.570 45.336 9.94168 1.18677 2 
59.215 45.336 10.00922 1.14062 2 
60.860 45.336 10.08294 1.13615 2 
62.505 45.336 10.05312 1.45279 2 
64.150 45.336 10.07668 1.56560 2 
65.794 45.336 10.46440 1.33592 2 
67.439 45.336 10.16248 1.23602 2 
69.084 45.336 10.41804 1.41481 2 
70.729 45.336 10.63417 1.29682 2 
72.374 45.336 10.47891 1.29972 2 
74.019 45.336 10.41100 1.39497 2 
75.664 45.336 10.42608 0.96226 2 
77.308 45.336 10.64376 1.00702 2 
78.953 45.336 10.62882 0.86920 2 
80.598 45.336 10.46884 1.11889 2 
82.243 45.336 10.39755 1.07671 2 
83.888 45.336 10.73648 0.74526 2 
85.533 45.336 10.53507 1.04066 2 
87.178 45.336 10.99858 1.38038 2 
88.822 45.336 10.93304 1.22511 2 
90.467 45.336 11.03700 1.17634 2 
92.112 45.336 10.92298 1.05573 2 
93.757 45.336 11.10275 0.77272 2 
95.402 45.336 11.14621 0.84463 2 
97.047 45.336 11.17991 0.99491 2 
98.692 45.336 10.91215 0.73946 2 
100.336 45.336 11.49638 0.31552 2 
101.981 45.336 2.12321 0.31199 2 
103.626 45.336 0.00000 -0.00000 0 
105.271 45.336 0.00000 -0.00000 0 
106.916 45.336 5.94007 0.56379 2 
108.561 45.336 11.64153 0.71081 2 
110.206 45.336 11.12416 0.57263 2 
111.850 45.336 11.31608 0.23134 2 
113.495 45.336 11.22682 0.29485 2 
115.140 45.336 11.19007 0.42290 2 
116.785 45.336 11.40788 0.29233 2 
118.430 45.336 11.35919 0.21511 2 
120.075 45.336 11.22430 0.23779 2 
121.720 45.336 11.16680 0.19088 2 
123.364 45.336 11.20597 0.36041 2 
125.009 45.336 11.12224 0.09355 2 
126.654 45.336 11.27604 0.16540 2 
128.299 45.336 11.12001 -0.15218 2 
129.944 45.336 11.23343 -0.01268 2 
131.589 45.336 11.09661 -0.28605 2 
133.234 45.336 11.05229 -0.21006 2 
134.879 45.336 11.30050 -0.15316 2 
136.523 45.336 11.53314 -0.19652 2 
138.168 45.336 11.43379 -0.49518 2 
139.813 45.336 11.14115 -0.37034 2 
141.458 45.336 11.13084 -0.46123 2 
143.103 45.336 11.19130 -0.42175 2 
144.748 45.336 11.04114 -0.69180 2 
146.393 45.336 10.92522 -0.69290 2 
148.037 45.336 10.89151 -0.59867 2 
149.682 45.336 11.09712 -0.72959 2 
151.327 45.336 10.92534 -0.91705 2 
152.972 45.336 0.00000 -0.00000 0 
-13.159 43.692 0.00000 -0.00000 0 
-11.514 43.692 9.38725 0.11743 2 
-9.869 43.692 9.28605 0.38511 2 
-8.224 43.692 9.18361 0.69303 2 
-6.579 43.692 9.21238 0.42426 2 
-4.935 43.692 9.41097 0.40443 2 
-3.290 43.692 9.28607 0.79526 2 
-1.645 43.692 9.10193 0.75395 2 
0.000 43.692 8.93699 0.69697 2 
1.645 43.692 9.15911 0.64527 2 
3.290 43.692 9.14391 0.84418 2 
4.935 43.692 0.00000 -0.00000 0 
6.579 43.692 0.00000 -0.00000 0 
8.224 43.692 0.00000 -0.00000 0 
9.869 43.692 0.00000 -0.00000 0 
11.514 43.692 0.00000 -0.00000 0 
13.159 43.692 0.00000 -0.00000 0 
14.804 43.692 0.00000 -0.00000 0 
16.449 43.692 0.00000 -0.00000 0 
18.093 43.692 0.00000 -0.00000 0 
19.738 43.692 0.00000 -0.00000 0 
21.383 43.692 0.00000 -0.00000 0 
23.028 43.692 5.18905 0.54299 2 
24.673 43.692 10.37809 1.08597 2 
26.318 43.692 9.02401 1.06803 2 
27.963 43.692 9.38474 1.13489 2 
29.607 43.692 9.44539 1.08031 2 
31.252 43.692 9.52518 0.99967 2 
32.897 43.692 9.43542 1.19788 2 
34.542 43.692 9.43460 1.34122 2 
36.187 43.692 9.61741 1.26917 2 
37.832 43.692 9.71073 0.98995 2 
39.477 43.692 9.50088 1.29199 2 
41.121 43.692 9.63692 1.11063 2 
42.766 43.692 9.55963 1.15424 2 
44.411 43.692 9.83901 1.43046 2 
46.056 43.692 9.78151 1.24432 2 
47.701 43.692 9.51957 1.25617 2 
49.346 43.692 9.60710 1.19424 2 
50.991 43.692 9.80607 1.15685 2 
52.636 43.692 9.78783 1.28364 2 
54.280 43.692 9.79957 1.31594 2 
55.925 43.692 10.05521 1.24546 2 
57.570 43.692 10.12261 1.36338 2 
59.215 43.692 10.06504 1.13156 2 
60.860 43.692 10.13254 1.26434 2 
62.505 43.692 10.20310 1.40665 2 
64.150 43.692 10.37929 1.37035 2 
65.794 43.692 10.32583 1.17284 2 
67.439 43.692 10.53682 1.20329 2 
69.084 43.692 10.38518 1.40482 2 
70.729 43.692 10.55284 1.26655 2 
72.374 43.692 10.53354 1.28348 2 
74.019 43.692 10.59935 1.03087 2 
75.664 43.692 10.53052 0.93229 2 
77.308 43.692 10.90162 1.28990 2 
78.953 43.692 10.93315 1.00955 2 
80.598 43.692 10.59812 1.00914 2 
82.243 43.692 10.31168 1.15992 2 
83.888 43.692 10.72313 0.83079 2 
85.533 43.692 10.88565 0.91705 2 
87.178 43.692 11.06537 1.11263 2 
88.822 43.692 10.82838 1.11542 2 
90.467 43.692 10.92132 1.14946 2 
92.112 43.692 10.98392 1.22707 2 
93.757 43.692 11.16906 0.87219 2 
95.402 43.692 11.03895 1.10477 2 
97.047 43.692 11.22966 1.18044 2 
98.692 43.692 11.03808 0.81315 2 
100.336 43.692 11.40003 0.42846 2 
101.981 43.692 4.24642 0.62399 2 
103.626 43.692 0.00000 -0.00000 0 
105.271 43.692 0.00000 -0.00000 0 
106.916 43.692 6.07303 0.33183 2 
108.561 43.692 11.58318 0.60165 2 
110.206 43.692 11.22468 0.76719 2 
111.850 43.692 11.26399 0.46544 2 
113.495 43.692 11.35922 0.42943 2 
115.140 43.692 11.04991 0.38551 2 
116.785 43.692 11.30924 0.45996 2 
118.430 43.692 11.54844 0.24110 2 
120.075 43.692 11.34353 0.39396 2 
121.720 43.692 11.12444 -0.08072 2 
123.364 43.692 11.46066 0.06647 2 
125.009 43.692 11.03839 0.18332 2 
126.654 43.692 11.30556 -0.12380 2 
128.299 43.692 11.46311 -0.27449 2 
129.944 43.692 11.54920 -0.28693 2 
131.589 43.692 11.34587 -0.36494 2 
133.234 43.692 11.14423 -0.14786 2 
134.879 43.692 11.25621 -0.14674 2 
136.523 43.692 11.21907 -0.46105 2 
138.168 43.692 11.18472 -0.41813 2 
139.813 43.692 11.19081 -0.47511 2 
141.458 43.692 10.88833 -0.40338 2 
143.103 43.692 11.15147 -0.46754 2 
144.748 43.692 11.14560 -0.86889 2 
146.393 43.692 10.89502 -0.80872 2 
148.037 43.692 11.16118 -0.54808 2 
149.682 43.692 10.90232 -0.59708 2 
151.327 43.692 11.00217 -0.99456 2 
152.972 43.692 0.00000 -0.00000 0 
-13.159 42.047 0.00000 -0.00000 0 
-11.514 42.047 9.44187 0.21123 2 
-9.869 42.047 9.21604 0.25544 2 
-8.224 42.047 9.00545 0.40941 2 
-6.579 42.047 8.95764 0.43293 2 
-4.935 42.047 9.16677 0.54996 2 
-3.290 42.047 9.00453 0.60994 2 
-1.645 42.047 9.09725 0.53958 2 
0.000 42.047 9.14940 0.73823 2 
1.645 42.047 9.11316 0.65389 2 
3.290 42.047 9.33231 0.55124 2 
4.935 42.047 0.00000 -0.00000 0 
6.579 42.047 0.00000 -0.00000 0 
8.224 42.047 0.00000 -0.00000 0 
9.869 42.047 0.00000 -0.00000 0 
11.514 42.047 0.00000 -0.00000 0 
13.159 42.047 0.00000 -0.00000 0 
14.804 42.047 0.00000 -0.00000 0 
16.449 42.047 0.00000 -0.00000 0 
18.093 42.047 0.00000 -0.00000 0 
19.738 42.047 0.00000 -0.00000 0 
21.383 42.047 0.00000 -0.00000 0 
23.028 42.047 5.27254 0.51662 2 
24.673 42.047 10.54508 1.03325 2 
26.318 42.047 9.21226 1.09532 2 
27.963 42.047 9.43919 1.13834 2 
29.607 42.047 9.50941 1.16533 2 
31.252 42.047 9.48419 1.03489 2 
32.897 42.047 9.28350 1.11898 2 
34.542 42.047 9.24131 1.33837 2 
36.187 42.047 9.53720 1.18863 2 
37.832 42.047 9.84074 1.36607 2 
39.477 42.047 9.67060 1.46942 2 
41.121 42.047 9.52584 1.41369 2 
42.766 42.047 9.87847 1.28200 2 
44.411 42.047 9.67607 1.26720 2 
46.056 42.047 9.61688 1.25002 2 
47.701 42.047 9.75432 1.53268 2 
49.346 42.047 9.77463 1.32188 2 
50.991 42.047 9.82286 1.33179 2 
52.636 42.047 9.87330 1.13068 2 
54.280 42.047 9.76156 1.13064 2 
55.925 42.047 9.99110 1.12483 2 
57.570 42.047 9.98036 1.37517 2 
59.215 42.047 9.81661 1.36394 2 
60.860 42.047 10.08215 1.23259 2 
62.505 42.047 9.87525 1.31493 2 
64.150 42.047 10.24175 1.51413 2 
65.794 42.047 10.22249 1.22640 2 
67.439 42.047 10.57848 1.31563 2 
69.084 42.047 10.29126 1.31838 2 
70.729 42.047 10.45425 1.00790 2 
72.374 42.047 10.61344 1.29608 2 
74.019 42.047 10.48884 1.08163 2 
75.664 42.047 10.21470 1.10151 2 
77.308 42.047 10.91809 1.23467 2 
78.953 42.047 10.94274 1.14983 2 
80.598 42.047 10.73084 0.93961 2 
82.243 42.047 10.42457 1.11481 2 
83.888 42.047 10.52857 1.06382 2 
85.533 42.047 10.61030 0.78742 2 
87.178 42.047 10.84955 0.80999 2 
88.822 42.047 11.07577 1.16201 2 
90.467 42.047 11.02265 1.21703 2 
92.112 42.047 11.11919 1.16069 2 
93.757 42.047 11.00274 0.92424 2 
95.402 42.047 11.22772 1.00626 2 
97.047 42.047 11.12873 1.12695 2 
98.692 42.047 11.14882 1.01345 2 
100.336 42.047 11.78829 0.86636 2 
101.981 42.047 5.89414 0.43318 2 
103.626 42.047 0.00000 -0.00000 0 
105.271 42.047 0.00000 -0.00000 0 
106.916 42.047 5.93478 0.86674 2 
108.561 42.047 11.42383 0.55156 2 
110.206 42.047 11.35714 0.54148 2 
111.850 42.047 11.13254 0.45117 2 
113.495 42.047 11.43408 0.49492 2 
115.140 42.047 11.29506 0.31723 2 
116.785 42.047 11.23775 0.27237 2 
118.430 42.047 11.36154 0.15140 2 
120.075 42.047 11.44718 0.43305 2 
121.720 42.047 11.51476 0.17029 2 
123.364 42.047 11.36842 -0.12889 2 
125.009 42.047 11.17640 0.05580 2 
126.654 42.047 11.38068 -0.22649 2 
128.299 42.047 11.41714 -0.06876 2 
129.944 42.047 11.36343 -0.10384 2 
131.589 42.047 11.56284 -0.22662 2 
133.234 42.047 11.33225 -0.02390 2 
134.879 42.047 11.17581 -0.26464 2 
136.523 42.047 11.11749 -0.40993 2 
138.168 42.047 11.14179 -0.39868 2 
139.813 42.047 11.29851 -0.75052 2 
141.458 42.047 10.85117 -0.46502 2 
143.103 42.047 11.17430 -0.67043 2 
144.748 42.047 11.38828 -0.41930 2 
146.393 42.047 10.85764 -0.47965 2 
148.037 42.047 10.79863 -0.62618 2 
149.682 42.047 10.81224 -0.87631 2 
151.327 42.047 10.95388 -1.47140 2 
152.972 42.047 0.00000 -0.00000 0 
-13.159 40.402 0.00000 -0.00000 0 
-11.514 40.402 9.73936 0.45943 2 
-9.869 40.402 9.09624 0.42570 2 
-8.224 40.402 9.01307 0.44056 2 
-6.579 40.402 9.02617 0.43847 2 
-4.935 40.402 9.06074 0.55088 2 
-3.290 40.402 9.01355 0.37766 2 
-1.645 40.402 9.18314 0.46502 2 
0.000 40.402 9.26259 0.75475 2 
1.645 40.402 9.26637 0.71908 2 
3.290 40.402 9.63977 0.41485 2 
4.935 40.402 0.00000 -0.00000 0 
6.579 40.402 0.00000 -0.00000 0 
8.224 40.402 0.00000 -0.00000 0 
9.869 40.402 0.00000 -0.00000 0 
11.514 40.402 0.00000 -0.00000 0 
13.159 40.402 0.00000 -0.00000 0 
14.804 40.402 0.00000 -0.00000 0 
16.449 40.402 0.00000 -0.00000 0 
18.093 40.402 0.00000 -0.00000 0 
19.738 40.402 0.00000 -0.00000 0 
21.383 40.402 0.00000 -0.00000 0 
23.028 40.402 4.92267 0.46403 2 
24.673 40.402 9.84534 0.92806 2 
26.318 40.402 9.28264 1.07418 2 
27.963 40.402 9.29105 1.11232 2 
29.607 40.402 9.37519 1.15939 2 
31.252 40.402 9.44321 1.07010 2 
32.897 40.402 9.24968 1.18787 2 
34.542 40.402 9.38518 1.38472 2 
36.187 40.402 9.44913 1.23233 2 
37.832 40.402 9.59502 1.41536 2 
39.477 40.402 9.66517 1.41200 2 
41.121 40.402 9.77040 1.33901 2 
42.766 40.402 9.82849 1.37635 2 
44.411 40.402 9.76651 1.29477 2 
46.056 40.402 9.62105 1.07518 2 
47.701 40.402 9.91579 1.46869 2 
49.346 40.402 9.89537 1.44181 2 
50.991 40.402 10.04584 1.40198 2 
52.636 40.402 9.85046 1.32321 2 
54.280 40.402 9.67345 1.24778 2 
55.925 40.402 10.05355 1.18946 2 
57.570 40.402 10.00249 1.25552 2 
59.215 40.402 9.82421 1.20013 2 
60.860 40.402 10.27208 1.18516 2 
62.505 40.402 10.53961 1.16714 2 
64.150 40.402 10.33135 1.20909 2 
65.794 40.402 10.43916 1.23156 2 
67.439 40.402 10.59796 1.50717 2 
69.084 40.402 10.40321 1.38541 2 
70.729 40.402 10.64295 1.37812 2 
72.374 40.402 10.60607 1.48733 2 
74.019 40.402 10.47825 1.33088 2 
75.664 40.402 10.36314 1.36486 2 
77.308 40.402 10.66834 1.36528 2 
78.953 40.402 10.83121 1.34910 2 
80.598 40.402 10.70901 1.18870 2 
82.243 40.402 10.76794 1.22533 2 
83.888 40.402 11.07644 1.46337 2 