TITLE = "B00018"
VARIABLES = "X [mm]", "Y [mm]", "Vx [m/s]", "Vy [m/s]", "Flag"
ZONE T="Frame 1", I=102, J=77, F=POINT
-13.159 53.561 0.00000 -0.00000 0 
-11.514 53.561 9.85670 0.25370 2 
-9.869 53.561 9.29460 0.28231 2 
-8.224 53.561 9.42957 0.35108 2 
-6.579 53.561 9.37329 0.31688 2 
-4.935 53.561 9.28686 0.13848 2 
-3.290 53.561 9.19923 0.08901 2 
-1.645 53.561 9.24606 0.07047 2 
0.000 53.561 9.83298 0.11820 2 
1.645 53.561 4.91649 0.05910 2 
3.290 53.561 0.00000 -0.00000 0 
4.935 53.561 0.00000 -0.00000 0 
6.579 53.561 0.00000 -0.00000 0 
8.224 53.561 0.00000 -0.00000 0 
9.869 53.561 0.00000 -0.00000 0 
11.514 53.561 0.00000 -0.00000 0 
13.159 53.561 0.00000 -0.00000 0 
14.804 53.561 0.00000 -0.00000 0 
16.449 53.561 0.00000 -0.00000 0 
18.093 53.561 0.00000 -0.00000 0 
19.738 53.561 0.00000 -0.00000 0 
21.383 53.561 0.00000 -0.00000 0 
23.028 53.561 0.43207 0.12521 2 
24.673 53.561 0.86413 0.25042 2 
26.318 53.561 9.59748 0.42183 2 
27.963 53.561 9.46651 0.51588 2 
29.607 53.561 9.49963 0.50570 2 
31.252 53.561 9.58450 0.60062 2 
32.897 53.561 9.59570 0.56133 2 
34.542 53.561 9.55082 0.52762 2 
36.187 53.561 9.64813 0.61691 2 
37.832 53.561 9.55790 0.66160 2 
39.477 53.561 9.70530 0.65857 2 
41.121 53.561 9.83500 0.67691 2 
42.766 53.561 9.80914 0.71733 2 
44.411 53.561 9.78989 0.67639 2 
46.056 53.561 9.85023 0.70736 2 
47.701 53.561 10.04674 0.70322 2 
49.346 53.561 10.06584 0.64447 2 
50.991 53.561 10.07731 0.60471 2 
52.636 53.561 10.14488 0.55658 2 
54.280 53.561 10.17143 0.66847 2 
55.925 53.561 10.17985 0.74498 2 
57.570 53.561 10.20310 0.67492 2 
59.215 53.561 10.20655 0.62675 2 
60.860 53.561 10.35782 0.64192 2 
62.505 53.561 10.33048 0.65877 2 
64.150 53.561 10.36858 0.72052 2 
65.794 53.561 10.36055 0.74409 2 
67.439 53.561 10.44380 0.71151 2 
69.084 53.561 10.45314 0.68368 2 
70.729 53.561 10.48951 0.68317 2 
72.374 53.561 10.54688 0.75577 2 
74.019 53.561 10.60033 0.73193 2 
75.664 53.561 10.66405 0.69937 2 
77.308 53.561 10.78138 0.68736 2 
78.953 53.561 10.70917 0.62432 2 
80.598 53.561 10.80368 0.67998 2 
82.243 53.561 10.77925 0.66352 2 
83.888 53.561 10.77602 0.52744 2 
85.533 53.561 10.88772 0.45795 2 
87.178 53.561 10.92424 0.53115 2 
88.822 53.561 10.95834 0.46475 2 
90.467 53.561 10.96977 0.45223 2 
92.112 53.561 10.98119 0.43970 2 
93.757 53.561 10.99262 0.42718 2 
95.402 53.561 11.00404 0.41465 2 
97.047 53.561 11.01546 0.40213 2 
98.692 53.561 5.53231 0.07518 2 
100.336 53.561 0.04916 -0.25177 2 
101.981 53.561 0.00000 -0.00000 0 
103.626 53.561 0.00000 -0.00000 0 
105.271 53.561 0.00000 -0.00000 0 
106.916 53.561 0.23226 -0.03517 2 
108.561 53.561 10.70614 -0.04356 2 
110.206 53.561 11.06598 0.13467 2 
111.850 53.561 11.18389 0.17087 2 
113.495 53.561 11.24111 0.14996 2 
115.140 53.561 11.17921 0.27897 2 
116.785 53.561 11.03106 0.25568 2 
118.430 53.561 10.97095 0.19562 2 
120.075 53.561 11.02839 0.18678 2 
121.720 53.561 11.24752 0.05534 2 
123.364 53.561 11.27029 0.09795 2 
125.009 53.561 10.99857 0.08560 2 
126.654 53.561 10.85788 -0.10100 2 
128.299 53.561 11.29638 -0.13226 2 
129.944 53.561 11.30637 -0.10722 2 
131.589 53.561 11.31007 -0.14211 2 
133.234 53.561 11.02735 -0.02672 2 
134.879 53.561 11.04507 -0.09692 2 
136.523 53.561 11.08851 -0.18508 2 
138.168 53.561 11.06519 -0.19203 2 
139.813 53.561 10.88373 -0.28355 2 
141.458 53.561 11.12312 -0.31476 2 
143.103 53.561 11.11751 -0.15173 2 
144.748 53.561 11.11190 0.01130 1 
146.393 53.561 10.80036 0.00176 2 
148.037 53.561 10.48881 -0.00777 2 
149.682 53.561 10.17726 -0.01731 1 
151.327 53.561 10.34005 -0.00235 1 
152.972 53.561 0.00000 -0.00000 0 
-13.159 51.916 0.00000 -0.00000 0 
-11.514 51.916 9.70320 0.43799 2 
-9.869 51.916 9.29945 0.48437 2 
-8.224 51.916 9.33913 0.65224 2 
-6.579 51.916 9.18512 0.80346 2 
-4.935 51.916 9.24437 0.62769 2 
-3.290 51.916 9.27379 0.73728 2 
-1.645 51.916 9.17463 0.82318 2 
0.000 51.916 9.77421 0.34380 2 
1.645 51.916 -0.19244 -0.15052 2 
3.290 51.916 0.00000 -0.00000 0 
4.935 51.916 0.00000 -0.00000 0 
6.579 51.916 0.00000 -0.00000 0 
8.224 51.916 0.00000 -0.00000 0 
9.869 51.916 0.00000 -0.00000 0 
11.514 51.916 0.00000 -0.00000 0 
13.159 51.916 0.00000 -0.00000 0 
14.804 51.916 0.00000 -0.00000 0 
16.449 51.916 0.00000 -0.00000 0 
18.093 51.916 0.00000 -0.00000 0 
19.738 51.916 0.00000 -0.00000 0 
21.383 51.916 0.00000 -0.00000 0 
23.028 51.916 -0.29184 -0.00390 2 
24.673 51.916 2.33310 0.66936 2 
26.318 51.916 9.70788 0.53674 2 
27.963 51.916 9.52770 1.37841 2 
29.607 51.916 9.49422 1.32905 2 
31.252 51.916 9.33312 1.51699 2 
32.897 51.916 9.62335 1.39589 2 
34.542 51.916 9.49845 1.29208 2 
36.187 51.916 9.40823 1.18327 2 
37.832 51.916 9.58501 1.28865 2 
39.477 51.916 9.59185 1.69176 2 
41.121 51.916 9.59566 1.47579 2 
42.766 51.916 9.50816 1.49131 2 
44.411 51.916 9.58286 1.42084 2 
46.056 51.916 9.61355 1.37505 2 
47.701 51.916 9.45620 1.36622 2 
49.346 51.916 9.61688 1.51840 2 
50.991 51.916 10.12210 1.57914 2 
52.636 51.916 10.04105 1.33628 2 
54.280 51.916 9.91060 1.42046 2 
55.925 51.916 9.93235 1.32145 2 
57.570 51.916 9.99617 1.01443 2 
59.215 51.916 10.07348 1.16057 2 
60.860 51.916 9.97333 1.49192 2 
62.505 51.916 9.98667 1.70423 2 
64.150 51.916 10.29024 1.60540 2 
65.794 51.916 10.08996 1.50750 2 
67.439 51.916 10.33737 1.34166 2 
69.084 51.916 10.45313 1.25423 2 
70.729 51.916 10.40885 1.34664 2 
72.374 51.916 10.61044 0.86399 2 
74.019 51.916 10.42479 1.55394 2 
75.664 51.916 10.57286 1.46919 2 
77.308 51.916 10.56580 1.54530 2 
78.953 51.916 10.52993 1.38591 2 
80.598 51.916 10.66676 1.49514 2 
82.243 51.916 10.56563 1.33928 2 
83.888 51.916 10.73506 0.99227 2 
85.533 51.916 10.46907 1.13757 2 
87.178 51.916 10.89645 1.17995 2 
88.822 51.916 10.97029 1.41814 2 
90.467 51.916 10.81484 1.25648 2 
92.112 51.916 10.91415 1.12591 2 
93.757 51.916 10.96844 1.20170 2 
95.402 51.916 10.77414 1.10714 2 
97.047 51.916 10.91058 1.09961 2 
98.692 51.916 11.62119 1.12641 2 
100.336 51.916 5.81059 0.56321 2 
101.981 51.916 0.00000 -0.00000 0 
103.626 51.916 0.00000 -0.00000 0 
105.271 51.916 0.00000 -0.00000 0 
106.916 51.916 5.46624 0.50097 2 
108.561 51.916 10.93249 1.00195 2 
110.206 51.916 10.91563 0.56923 2 
111.850 51.916 11.07019 0.49312 2 
113.495 51.916 11.07991 0.36267 2 
115.140 51.916 11.17834 0.54625 2 
116.785 51.916 11.26621 0.39004 2 
118.430 51.916 10.99853 0.19162 2 
120.075 51.916 11.22982 0.43426 2 
121.720 51.916 11.16500 0.20061 2 
123.364 51.916 11.45464 -0.00623 2 
125.009 51.916 11.25397 0.05917 2 
126.654 51.916 10.90663 0.13373 2 
128.299 51.916 11.01650 -0.06649 2 
129.944 51.916 11.07729 -0.02393 2 
131.589 51.916 11.00569 -0.09597 2 
133.234 51.916 10.98198 -0.15413 2 
134.879 51.916 11.17463 -0.35293 2 
136.523 51.916 11.27751 -0.52731 2 
138.168 51.916 11.00792 -0.44925 2 
139.813 51.916 10.82888 -0.78404 2 
141.458 51.916 11.45448 -0.57833 2 
143.103 51.916 10.86990 -0.82842 2 
144.748 51.916 11.27607 -0.47376 2 
146.393 51.916 11.06116 -1.00543 2 
148.037 51.916 10.93303 -1.03209 2 
149.682 51.916 10.68663 -0.76476 2 
151.327 51.916 10.47291 -0.79358 2 
152.972 51.916 0.00000 -0.00000 0 
-13.159 50.271 0.00000 -0.00000 0 
-11.514 50.271 9.54969 0.62228 2 
-9.869 50.271 9.09163 0.35610 2 
-8.224 50.271 9.14333 0.55147 2 
-6.579 50.271 9.20292 0.51527 2 
-4.935 50.271 9.28776 0.54912 2 
-3.290 50.271 9.26630 0.60802 2 
-1.645 50.271 9.23264 0.68187 2 
0.000 50.271 9.71545 0.56940 2 
1.645 50.271 4.87845 -0.01895 2 
3.290 50.271 0.00000 -0.00000 0 
4.935 50.271 0.00000 -0.00000 0 
6.579 50.271 0.00000 -0.00000 0 
8.224 50.271 0.00000 -0.00000 0 
9.869 50.271 0.00000 -0.00000 0 
11.514 50.271 0.00000 -0.00000 0 
13.159 50.271 0.00000 -0.00000 0 
14.804 50.271 0.00000 -0.00000 0 
16.449 50.271 0.00000 -0.00000 0 
18.093 50.271 0.00000 -0.00000 0 
19.738 50.271 0.00000 -0.00000 0 
21.383 50.271 0.00000 -0.00000 0 
23.028 50.271 0.12076 0.02568 2 
24.673 50.271 3.28717 0.52075 2 
26.318 50.271 9.81828 0.65165 2 
27.963 50.271 9.17610 0.88437 2 
29.607 50.271 9.56408 0.91343 2 
31.252 50.271 9.37809 0.91572 2 
32.897 50.271 9.64912 0.88032 2 
34.542 50.271 9.52342 1.01145 2 
36.187 50.271 9.65579 0.95004 2 
37.832 50.271 9.87661 1.05660 2 
39.477 50.271 9.68428 1.16174 2 
41.121 50.271 9.50418 1.02766 2 
42.766 50.271 9.57659 1.35955 2 
44.411 50.271 9.64648 0.78121 2 
46.056 50.271 9.76527 1.00238 2 
47.701 50.271 9.96916 0.68494 2 
49.346 50.271 9.84580 1.03177 2 
50.991 50.271 9.86111 1.12014 2 
52.636 50.271 9.93397 1.02466 2 
54.280 50.271 9.94337 1.03359 2 
55.925 50.271 9.85676 1.22968 2 
57.570 50.271 10.15229 0.98084 2 
59.215 50.271 10.32088 0.98766 2 
60.860 50.271 10.14847 1.00391 2 
62.505 50.271 10.11199 1.13669 2 
64.150 50.271 10.29165 1.05483 2 
65.794 50.271 10.16246 1.14331 2 
67.439 50.271 10.25135 1.04566 2 
69.084 50.271 10.14588 1.01548 2 
70.729 50.271 10.43182 1.01739 2 
72.374 50.271 10.67400 0.97222 2 
74.019 50.271 10.79481 0.99460 2 
75.664 50.271 10.56875 1.15600 2 
77.308 50.271 10.77324 0.70979 2 
78.953 50.271 10.58042 0.85682 2 
80.598 50.271 10.38972 1.25819 2 
82.243 50.271 10.73462 1.18612 2 
83.888 50.271 10.83614 1.20920 2 
85.533 50.271 10.66868 0.90540 2 
87.178 50.271 10.84819 0.75208 2 
88.822 50.271 10.62396 1.03821 2 
90.467 50.271 10.71434 1.16632 2 
92.112 50.271 10.56963 0.95173 2 
93.757 50.271 11.21367 0.89761 2 
95.402 50.271 10.80965 0.92025 2 
97.047 50.271 11.04153 0.77082 2 
98.692 50.271 11.79841 1.02156 2 
100.336 50.271 5.89920 0.51078 2 
101.981 50.271 0.00000 -0.00000 0 
103.626 50.271 0.00000 -0.00000 0 
105.271 50.271 0.00000 -0.00000 0 
106.916 50.271 5.98909 0.34648 2 
108.561 50.271 11.97818 0.69297 2 
110.206 50.271 11.13608 0.68239 2 
111.850 50.271 11.00275 0.51461 2 
113.495 50.271 11.10720 0.08891 2 
115.140 50.271 11.05370 0.24537 2 
116.785 50.271 11.04486 0.62723 2 
118.430 50.271 11.13235 0.24127 2 
120.075 50.271 11.35945 0.35807 2 
121.720 50.271 11.08175 0.07206 2 
123.364 50.271 11.06800 -0.22201 2 
125.009 50.271 10.99041 -0.11028 2 
126.654 50.271 11.10815 -0.10428 2 
128.299 50.271 11.36236 0.10062 2 
129.944 50.271 11.20427 -0.04079 2 
131.589 50.271 11.10705 -0.31878 2 
133.234 50.271 11.33847 -0.47978 2 
134.879 50.271 11.05126 -0.40991 2 
136.523 50.271 11.08987 -0.42986 2 
138.168 50.271 11.00246 -0.44566 2 
139.813 50.271 10.90262 -0.50001 2 
141.458 50.271 11.27825 -0.37822 2 
143.103 50.271 10.73964 -0.78011 2 
144.748 50.271 10.80686 -0.95435 2 
146.393 50.271 11.10042 -0.59057 2 
148.037 50.271 10.79214 -0.79344 2 
149.682 50.271 10.67109 -0.67750 2 
151.327 50.271 10.68783 -1.04778 2 
152.972 50.271 0.00000 -0.00000 0 
-13.159 48.626 0.00000 -0.00000 0 
-11.514 48.626 9.73345 0.34258 2 
-9.869 48.626 9.01779 0.37796 2 
-8.224 48.626 9.35624 0.54738 2 
-6.579 48.626 9.21696 0.36896 2 
-4.935 48.626 9.30487 0.46881 2 
-3.290 48.626 9.48737 0.50776 2 
-1.645 48.626 9.12376 0.64426 2 
0.000 48.626 9.33696 0.57643 2 
1.645 48.626 9.71349 0.88123 2 
3.290 48.626 0.00000 -0.00000 0 
4.935 48.626 0.00000 -0.00000 0 
6.579 48.626 0.00000 -0.00000 0 
8.224 48.626 0.00000 -0.00000 0 
9.869 48.626 0.00000 -0.00000 0 
11.514 48.626 0.00000 -0.00000 0 
13.159 48.626 0.00000 -0.00000 0 
14.804 48.626 0.00000 -0.00000 0 
16.449 48.626 0.00000 -0.00000 0 
18.093 48.626 0.00000 -0.00000 0 
19.738 48.626 0.00000 -0.00000 0 
21.383 48.626 0.00000 -0.00000 0 
23.028 48.626 0.53337 0.05526 2 
24.673 48.626 4.47007 1.12133 2 
26.318 48.626 9.93297 0.76713 2 
27.963 48.626 9.21812 0.94718 2 
29.607 48.626 9.59770 0.96217 2 
31.252 48.626 9.45335 0.89357 2 
32.897 48.626 9.52135 0.86390 2 
34.542 48.626 9.66840 0.94514 2 
36.187 48.626 9.71604 1.02201 2 
37.832 48.626 9.85248 1.14044 2 
39.477 48.626 9.64607 1.16535 2 
41.121 48.626 9.68122 1.27962 2 
42.766 48.626 9.64502 1.22779 2 
44.411 48.626 9.64937 1.11021 2 
46.056 48.626 9.98795 0.98091 2 
47.701 48.626 9.96233 1.02620 2 
49.346 48.626 9.98412 1.24264 2 
50.991 48.626 9.79594 1.24521 2 
52.636 48.626 9.67740 1.40055 2 
54.280 48.626 9.90646 1.03972 2 
55.925 48.626 9.95879 0.98259 2 
57.570 48.626 10.13150 0.99645 2 
59.215 48.626 10.14443 1.21225 2 
60.860 48.626 9.94475 1.33094 2 
62.505 48.626 10.07830 1.14183 2 
64.150 48.626 10.26253 0.85928 2 
65.794 48.626 10.18890 1.20686 2 
67.439 48.626 10.18484 1.24963 2 
69.084 48.626 10.20324 1.04838 2 
70.729 48.626 10.31698 1.09260 2 
72.374 48.626 10.24027 1.15667 2 
74.019 48.626 10.34039 1.20762 2 
75.664 48.626 10.47604 1.13987 2 
77.308 48.626 10.55018 1.06517 2 
78.953 48.626 10.68117 0.85914 2 
80.598 48.626 10.58986 1.20475 2 
82.243 48.626 10.64117 1.23029 2 
83.888 48.626 10.53546 1.24688 2 
85.533 48.626 10.85146 1.09055 2 
87.178 48.626 10.81093 0.76487 2 
88.822 48.626 10.56327 1.08093 2 
90.467 48.626 10.78796 1.28797 2 
92.112 48.626 10.72903 0.85858 2 
93.757 48.626 10.73089 0.94780 2 
95.402 48.626 10.68597 0.96804 2 
97.047 48.626 11.07254 0.64053 2 
98.692 48.626 11.57064 0.82262 2 
100.336 48.626 5.89421 0.26536 2 
101.981 48.626 0.00000 -0.00000 0 
103.626 48.626 0.00000 -0.00000 0 
105.271 48.626 0.00000 -0.00000 0 
106.916 48.626 4.25514 0.68527 2 
108.561 48.626 9.19822 0.80493 2 
110.206 48.626 11.75089 0.55707 2 
111.850 48.626 11.06015 0.44856 2 
113.495 48.626 11.46266 0.35227 2 
115.140 48.626 11.26102 0.60773 2 
116.785 48.626 11.10634 0.50437 2 
118.430 48.626 11.23159 0.21689 2 
120.075 48.626 11.32311 0.26575 2 
121.720 48.626 11.29758 0.00565 2 
123.364 48.626 11.05222 0.04492 2 
125.009 48.626 11.01445 0.29027 2 
126.654 48.626 11.32373 0.13015 2 
128.299 48.626 11.41020 -0.02265 2 
129.944 48.626 11.23526 0.01017 2 
131.589 48.626 11.42118 -0.07981 2 
133.234 48.626 11.45695 -0.29193 2 
134.879 48.626 11.37275 -0.53833 2 
136.523 48.626 11.20055 -0.37486 2 
138.168 48.626 11.33596 -0.38321 2 
139.813 48.626 10.99659 -0.68188 2 
141.458 48.626 10.81670 -0.61168 2 
143.103 48.626 10.80245 -0.57250 2 
144.748 48.626 11.04141 -0.73834 2 
146.393 48.626 10.84558 -0.94994 2 
148.037 48.626 10.76461 -0.77943 2 
149.682 48.626 10.49905 -0.75860 2 
151.327 48.626 10.83844 -1.08785 2 
152.972 48.626 0.00000 -0.00000 0 
-13.159 46.981 0.00000 -0.00000 0 
-11.514 46.981 9.39745 0.32517 2 
-9.869 46.981 9.14203 0.36773 2 
-8.224 46.981 9.33670 0.47246 2 
-6.579 46.981 9.13732 0.20718 2 
-4.935 46.981 9.30703 0.41821 2 
-3.290 46.981 9.25901 0.27540 2 
-1.645 46.981 9.26363 0.36240 2 
0.000 46.981 9.14648 0.50214 2 
1.645 46.981 9.12050 0.76903 2 
3.290 46.981 0.00000 -0.00000 0 
4.935 46.981 0.00000 -0.00000 0 
6.579 46.981 0.00000 -0.00000 0 
8.224 46.981 0.00000 -0.00000 0 
9.869 46.981 0.00000 -0.00000 0 
11.514 46.981 0.00000 -0.00000 0 
13.159 46.981 0.00000 -0.00000 0 
14.804 46.981 0.00000 -0.00000 0 
16.449 46.981 0.00000 -0.00000 0 
18.093 46.981 0.00000 -0.00000 0 
19.738 46.981 0.00000 -0.00000 0 
21.383 46.981 0.00000 -0.00000 0 
23.028 46.981 2.23504 0.56066 2 
24.673 46.981 6.25121 1.08526 2 
26.318 46.981 9.84322 1.11266 2 
27.963 46.981 9.28294 0.92523 2 
29.607 46.981 9.52180 0.94421 2 
31.252 46.981 9.42715 1.09387 2 
32.897 46.981 9.54187 1.28812 2 
34.542 46.981 9.65197 1.05402 2 
36.187 46.981 9.65849 0.98554 2 
37.832 46.981 9.68062 1.15081 2 
39.477 46.981 9.60785 1.16896 2 
41.121 46.981 9.64524 0.94890 2 
42.766 46.981 9.71111 1.05318 2 
44.411 46.981 9.67358 1.00295 2 
46.056 46.981 9.87086 1.08922 2 
47.701 46.981 9.85814 1.09138 2 
49.346 46.981 9.80628 1.21663 2 
50.991 46.981 9.68066 1.04254 2 
52.636 46.981 9.74800 1.28370 2 
54.280 46.981 9.98630 1.25407 2 
55.925 46.981 10.13232 1.24046 2 
57.570 46.981 9.99982 0.92097 2 
59.215 46.981 10.14344 0.95456 2 
60.860 46.981 9.99481 1.15762 2 
62.505 46.981 10.27928 0.91894 2 
64.150 46.981 10.19092 0.92139 2 
65.794 46.981 10.03721 1.25532 2 
67.439 46.981 10.19605 1.33494 2 
69.084 46.981 10.30219 1.34511 2 
70.729 46.981 10.37138 1.55903 2 
72.374 46.981 10.39913 1.37161 2 
74.019 46.981 10.50579 1.39809 2 
75.664 46.981 10.70684 1.15013 2 
77.308 46.981 10.56465 1.38154 2 
78.953 46.981 10.54592 0.95248 2 
80.598 46.981 10.66401 0.93225 2 
82.243 46.981 10.65488 1.06572 2 
83.888 46.981 10.59429 1.21809 2 
85.533 46.981 10.89562 1.00010 2 
87.178 46.981 10.76834 1.08421 2 
88.822 46.981 10.76467 0.95545 2 
90.467 46.981 11.01314 0.94759 2 
92.112 46.981 10.96873 1.14932 2 
93.757 46.981 10.91531 0.92685 2 
95.402 46.981 10.93768 0.88489 2 
97.047 46.981 11.13469 0.68817 2 
98.692 46.981 10.93558 0.72359 2 
100.336 46.981 12.73315 0.48892 2 
101.981 46.981 0.00000 -0.00000 0 
103.626 46.981 0.00000 -0.00000 0 
105.271 46.981 0.00000 -0.00000 0 
106.916 46.981 3.88225 0.55585 2 
108.561 46.981 7.76451 1.11169 2 
110.206 46.981 12.03041 0.77370 2 
111.850 46.981 10.96946 0.44699 2 
113.495 46.981 11.34087 0.30934 2 
115.140 46.981 11.10747 0.65681 2 
116.785 46.981 11.20300 0.44877 2 
118.430 46.981 11.16392 0.30026 2 
120.075 46.981 11.39675 0.32243 2 
121.720 46.981 11.19829 0.35463 2 
123.364 46.981 11.27395 0.38020 2 
125.009 46.981 11.54206 0.20827 2 
126.654 46.981 11.52731 -0.20996 2 
128.299 46.981 11.32174 -0.13290 2 
129.944 46.981 11.26330 0.11676 2 
131.589 46.981 11.48267 -0.09582 2 
133.234 46.981 11.29927 -0.43776 2 
134.879 46.981 11.41843 -0.27380 2 
136.523 46.981 11.34796 -0.30361 2 
138.168 46.981 11.26534 -0.48153 2 
139.813 46.981 10.89425 -0.67026 2 
141.458 46.981 10.82969 -0.63555 2 
143.103 46.981 10.94073 -0.74795 2 
144.748 46.981 11.10853 -0.80807 2 
146.393 46.981 10.90711 -0.99937 2 
148.037 46.981 10.87858 -0.82959 2 
149.682 46.981 10.74159 -1.16093 2 
151.327 46.981 10.61239 -1.20886 2 
152.972 46.981 0.00000 -0.00000 0 
-13.159 45.336 0.00000 -0.00000 0 
-11.514 45.336 9.06145 0.30777 2 
-9.869 45.336 9.16161 0.40874 2 
-8.224 45.336 9.14117 0.61623 2 
-6.579 45.336 9.08310 0.61151 2 
-4.935 45.336 9.44429 0.62204 2 
-3.290 45.336 9.05923 0.41280 2 
-1.645 45.336 9.19948 0.45187 2 
0.000 45.336 8.91732 0.64081 2 
1.645 45.336 9.91523 0.58524 2 
3.290 45.336 6.33254 0.30601 2 
4.935 45.336 0.00000 -0.00000 0 
6.579 45.336 0.00000 -0.00000 0 
8.224 45.336 0.00000 -0.00000 0 
9.869 45.336 0.00000 -0.00000 0 
11.514 45.336 0.00000 -0.00000 0 
13.159 45.336 0.00000 -0.00000 0 
14.804 45.336 0.00000 -0.00000 0 
16.449 45.336 0.00000 -0.00000 0 
18.093 45.336 0.00000 -0.00000 0 
19.738 45.336 0.00000 -0.00000 0 
21.383 45.336 0.00000 -0.00000 0 
23.028 45.336 4.01618 0.52460 2 
24.673 45.336 8.03235 1.04920 2 
26.318 45.336 9.25628 1.21482 2 
27.963 45.336 9.12097 0.93928 2 
29.607 45.336 9.35247 1.01098 2 
31.252 45.336 9.42892 0.87701 2 
32.897 45.336 9.55004 0.98731 2 
34.542 45.336 9.41932 0.96201 2 
36.187 45.336 9.63178 1.09747 2 
37.832 45.336 9.65260 1.26680 2 
39.477 45.336 9.65360 1.35160 2 
41.121 45.336 9.59429 1.23833 2 
42.766 45.336 9.56116 1.18794 2 
44.411 45.336 9.78128 1.09043 2 
46.056 45.336 9.66070 1.45016 2 
47.701 45.336 9.95214 1.12711 2 
49.346 45.336 10.01718 1.33937 2 
50.991 45.336 9.84010 1.16681 2 
52.636 45.336 9.86746 1.15348 2 
54.280 45.336 9.96092 1.20873 2 
55.925 45.336 10.12620 1.16321 2 
57.570 45.336 10.03178 0.99832 2 
59.215 45.336 10.07470 1.16391 2 
60.860 45.336 9.99438 1.22148 2 
62.505 45.336 10.36296 0.96715 2 
64.150 45.336 10.11932 0.98350 2 
65.794 45.336 10.31987 1.22940 2 
67.439 45.336 10.50255 1.17130 2 
69.084 45.336 10.29688 1.32060 2 
70.729 45.336 10.41869 1.48266 2 
72.374 45.336 10.64131 1.05112 2 
74.019 45.336 10.47828 0.90144 2 
75.664 45.336 10.64200 1.03947 2 
77.308 45.336 10.49639 1.33676 2 
78.953 45.336 10.47453 1.29404 2 
80.598 45.336 10.71878 1.15235 2 
82.243 45.336 10.76819 1.17388 2 
83.888 45.336 10.79448 1.31565 2 
85.533 45.336 10.89094 1.15372 2 
87.178 45.336 10.73871 1.16916 2 
88.822 45.336 10.78410 0.90118 2 
90.467 45.336 10.95330 0.96866 2 
92.112 45.336 11.06671 1.12238 2 
93.757 45.336 11.08569 1.26236 2 
95.402 45.336 10.91316 1.06146 2 
97.047 45.336 10.90726 1.14907 2 
98.692 45.336 10.92532 1.02612 2 
100.336 45.336 11.43938 0.55759 2 
101.981 45.336 5.71969 0.27879 2 
103.626 45.336 0.00000 -0.00000 0 
105.271 45.336 0.00000 -0.00000 0 
106.916 45.336 3.81627 0.38740 2 
108.561 45.336 7.63253 0.77481 2 
110.206 45.336 11.73971 0.63671 2 
111.850 45.336 11.25832 0.71962 2 
113.495 45.336 11.22476 0.40421 2 
115.140 45.336 11.42546 0.61802 2 
116.785 45.336 11.33952 0.20015 2 
118.430 45.336 11.07785 0.24681 2 
120.075 45.336 11.31537 0.47855 2 
121.720 45.336 11.14866 0.34942 2 
123.364 45.336 11.67792 0.16864 2 
125.009 45.336 11.57084 0.04556 2 
126.654 45.336 11.45720 -0.20507 2 
128.299 45.336 11.56639 -0.25287 2 
129.944 45.336 11.47167 -0.24179 2 
131.589 45.336 11.38183 -0.18026 2 
133.234 45.336 11.35998 -0.37616 2 
134.879 45.336 11.40207 -0.18354 2 
136.523 45.336 11.24976 -0.44938 2 
138.168 45.336 11.34708 -0.60002 2 
139.813 45.336 11.36275 -0.79530 2 
141.458 45.336 10.89821 -0.84065 2 
143.103 45.336 11.09203 -0.95308 2 
144.748 45.336 11.07454 -1.08368 2 
146.393 45.336 11.21728 -0.87753 2 
148.037 45.336 10.96162 -0.91854 2 
149.682 45.336 10.96956 -1.08054 2 
151.327 45.336 11.04794 -1.23185 2 
152.972 45.336 0.00000 -0.00000 0 
-13.159 43.692 0.00000 -0.00000 0 
-11.514 43.692 9.21679 0.30733 2 
-9.869 43.692 9.16317 0.41964 2 
-8.224 43.692 9.05233 0.50802 2 
-6.579 43.692 9.01584 0.39576 2 
-4.935 43.692 9.31242 0.40854 2 
-3.290 43.692 9.19788 0.63295 2 
-1.645 43.692 9.26692 0.56823 2 
0.000 43.692 8.99480 0.53505 2 
1.645 43.692 7.11398 0.53778 2 
3.290 43.692 5.23317 0.54051 2 
4.935 43.692 0.00000 -0.00000 0 
6.579 43.692 0.00000 -0.00000 0 
8.224 43.692 0.00000 -0.00000 0 
9.869 43.692 0.00000 -0.00000 0 
11.514 43.692 0.00000 -0.00000 0 
13.159 43.692 0.00000 -0.00000 0 
14.804 43.692 0.00000 -0.00000 0 
16.449 43.692 0.00000 -0.00000 0 
18.093 43.692 0.00000 -0.00000 0 
19.738 43.692 0.00000 -0.00000 0 
21.383 43.692 0.00000 -0.00000 0 
23.028 43.692 4.90675 0.50657 2 
24.673 43.692 9.81350 1.01313 2 
26.318 43.692 9.27650 1.11103 2 
27.963 43.692 9.45817 1.05751 2 
29.607 43.692 9.41371 1.25761 2 
31.252 43.692 9.46553 1.13967 2 
32.897 43.692 9.51032 1.04694 2 
34.542 43.692 9.49171 1.06645 2 
36.187 43.692 9.71299 1.11326 2 
37.832 43.692 9.68445 1.23338 2 
39.477 43.692 9.73985 1.25131 2 
41.121 43.692 9.65468 1.24396 2 
42.766 43.692 9.55992 1.16261 2 
44.411 43.692 9.73542 1.10006 2 
46.056 43.692 9.82059 1.11049 2 
47.701 43.692 9.77922 1.04675 2 
49.346 43.692 9.75171 1.32415 2 
50.991 43.692 9.89350 1.39842 2 
52.636 43.692 9.88020 1.28932 2 
54.280 43.692 10.07997 1.26944 2 
55.925 43.692 10.05233 1.27919 2 
57.570 43.692 10.08099 0.98713 2 
59.215 43.692 10.08561 1.16863 2 
60.860 43.692 10.02965 1.15201 2 
62.505 43.692 10.34832 1.12824 2 
64.150 43.692 10.19816 1.32188 2 
65.794 43.692 10.24981 1.29355 2 
67.439 43.692 10.58386 1.17104 2 
69.084 43.692 10.33933 1.13306 2 
70.729 43.692 10.45555 1.25858 2 
72.374 43.692 10.44963 1.25811 2 
74.019 43.692 10.36206 1.16735 2 
75.664 43.692 10.58828 1.30530 2 
77.308 43.692 10.47181 1.27702 2 
78.953 43.692 10.63369 1.06831 2 
80.598 43.692 10.94737 1.19656 2 
82.243 43.692 10.71379 1.16324 2 
83.888 43.692 10.87290 1.14746 2 
85.533 43.692 10.94305 1.10686 2 
87.178 43.692 10.79719 1.20721 2 
88.822 43.692 10.92138 1.12250 2 
90.467 43.692 10.62851 1.14221 2 
92.112 43.692 10.85979 0.95035 2 
93.757 43.692 10.82620 1.21090 2 
95.402 43.692 10.79456 1.11611 2 
97.047 43.692 10.94923 1.08021 2 
98.692 43.692 11.04894 1.08259 2 
100.336 43.692 11.64736 0.84943 2 
101.981 43.692 5.82368 0.42471 2 
103.626 43.692 0.00000 -0.00000 0 
105.271 43.692 0.00000 -0.00000 0 
106.916 43.692 3.75028 0.21896 2 
108.561 43.692 7.50056 0.43792 2 
110.206 43.692 11.59980 0.34611 2 
111.850 43.692 11.18483 0.36087 2 
113.495 43.692 11.30903 0.20466 2 
115.140 43.692 11.34774 0.51011 2 
116.785 43.692 11.55124 0.35891 2 
118.430 43.692 11.42846 0.29858 2 
120.075 43.692 11.48584 0.40785 2 
121.720 43.692 11.52485 0.34677 2 
123.364 43.692 11.69791 0.19167 2 
125.009 43.692 11.43537 0.19632 2 
126.654 43.692 11.36839 0.13478 2 
128.299 43.692 11.64473 -0.09628 2 
129.944 43.692 11.38856 -0.24302 2 
131.589 43.692 11.27382 -0.12559 2 
133.234 43.692 11.64822 -0.38870 2 
134.879 43.692 11.42291 -0.45927 2 
136.523 43.692 11.27332 -0.41698 2 
138.168 43.692 11.43939 -0.57629 2 
139.813 43.692 11.38314 -0.48260 2 
141.458 43.692 11.28985 -0.65662 2 
143.103 43.692 11.16340 -0.62063 2 
144.748 43.692 10.97708 -0.95625 2 
146.393 43.692 11.00906 -1.02760 2 
148.037 43.692 10.86036 -1.28266 2 
149.682 43.692 10.85123 -1.14201 2 
151.327 43.692 11.11365 -1.17455 2 
152.972 43.692 0.00000 -0.00000 0 
-13.159 42.047 0.00000 -0.00000 0 
-11.514 42.047 9.22038 0.33979 2 
-9.869 42.047 9.22992 0.45515 2 
-8.224 42.047 9.05498 0.53579 2 
-6.579 42.047 9.06488 0.45083 2 
-4.935 42.047 9.05609 0.50163 2 
-3.290 42.047 9.16857 0.41338 2 
-1.645 42.047 9.22859 0.43057 2 
0.000 42.047 9.29323 0.52201 2 
1.645 42.047 7.18483 0.62840 2 
3.290 42.047 5.07643 0.73478 2 
4.935 42.047 0.00000 -0.00000 0 
6.579 42.047 0.00000 -0.00000 0 
8.224 42.047 0.00000 -0.00000 0 
9.869 42.047 0.00000 -0.00000 0 
11.514 42.047 0.00000 -0.00000 0 
13.159 42.047 0.00000 -0.00000 0 
14.804 42.047 0.00000 -0.00000 0 
16.449 42.047 0.00000 -0.00000 0 
18.093 42.047 0.00000 -0.00000 0 
19.738 42.047 0.00000 -0.00000 0 
21.383 42.047 0.00000 -0.00000 0 
23.028 42.047 1.58020 0.31287 2 
24.673 42.047 10.02075 0.72156 2 
26.318 42.047 9.12468 0.94550 2 
27.963 42.047 9.59454 0.82387 2 
29.607 42.047 9.45955 1.13460 2 
31.252 42.047 9.48245 1.27076 2 
32.897 42.047 9.43695 1.22444 2 
34.542 42.047 9.52324 1.16395 2 
36.187 42.047 9.36967 1.37776 2 
37.832 42.047 9.49833 1.09152 2 
39.477 42.047 9.73341 1.05004 2 
41.121 42.047 9.73584 1.21723 2 
42.766 42.047 9.46579 1.36400 2 
44.411 42.047 9.67040 1.33452 2 
46.056 42.047 10.05188 1.21446 2 
47.701 42.047 9.57534 1.08458 2 
49.346 42.047 9.70417 1.41016 2 
50.991 42.047 10.02656 1.24641 2 
52.636 42.047 9.97337 1.13334 2 
54.280 42.047 10.16598 1.35339 2 
55.925 42.047 10.27314 1.37885 2 
57.570 42.047 10.27410 1.24606 2 
59.215 42.047 10.12132 1.06914 2 
60.860 42.047 10.25924 1.19680 2 
62.505 42.047 10.33367 1.28934 2 
64.150 42.047 10.15657 1.08615 2 
65.794 42.047 10.26129 1.15636 2 
67.439 42.047 10.66517 1.17077 2 
69.084 42.047 10.31298 1.21934 2 
70.729 42.047 10.39524 1.39131 2 
72.374 42.047 10.32422 1.51615 2 
74.019 42.047 10.24584 1.43326 2 
75.664 42.047 10.40137 1.15070 2 
77.308 42.047 10.74529 1.18788 2 
78.953 42.047 10.88788 1.31767 2 
80.598 42.047 10.52942 1.29880 2 
82.243 42.047 10.59547 1.01389 2 
83.888 42.047 10.81746 0.92605 2 
85.533 42.047 10.86644 0.86149 2 
87.178 42.047 10.85567 1.24527 2 
88.822 42.047 10.98144 0.97276 2 
90.467 42.047 11.05890 1.10309 2 
92.112 42.047 10.85250 1.13484 2 
93.757 42.047 10.93093 1.31679 2 
95.402 42.047 11.04118 1.11210 2 
97.047 42.047 11.11402 0.95978 2 
98.692 42.047 11.00796 0.95450 2 
100.336 42.047 11.67722 0.83586 2 
101.981 42.047 5.62042 0.56803 2 
103.626 42.047 0.00000 -0.00000 0 
105.271 42.047 0.00000 -0.00000 0 
106.916 42.047 4.50576 0.18045 2 
108.561 42.047 9.01152 0.36090 2 
110.206 42.047 12.03934 0.31516 2 
111.850 42.047 11.14012 0.17203 2 
113.495 42.047 11.27586 0.65301 2 
115.140 42.047 11.33532 0.47306 2 
116.785 42.047 11.48608 0.26361 2 
118.430 42.047 11.58976 0.32419 2 
120.075 42.047 11.54773 0.38171 2 
121.720 42.047 11.58739 0.45103 2 
123.364 42.047 11.43365 0.47082 2 
125.009 42.047 11.32554 0.14658 2 
126.654 42.047 11.42622 -0.01186 2 
128.299 42.047 11.50703 -0.05339 2 
129.944 42.047 11.45611 0.03226 2 
131.589 42.047 11.61557 -0.31041 2 
133.234 42.047 11.77064 -0.39134 2 
134.879 42.047 11.41955 -0.47552 2 
136.523 42.047 11.41194 -0.47040 2 
138.168 42.047 11.36021 -0.39141 2 
139.813 42.047 11.32633 -0.65961 2 
141.458 42.047 11.05927 -0.91053 2 
143.103 42.047 10.97938 -0.79271 2 
144.748 42.047 11.28356 -1.03831 2 
146.393 42.047 10.98957 -1.24696 2 
148.037 42.047 10.77808 -1.29117 2 
149.682 42.047 10.85728 -0.80048 2 
151.327 42.047 11.00343 -1.09956 2 
152.972 42.047 0.00000 -0.00000 0 
-13.159 40.402 0.00000 -0.00000 0 
-11.514 40.402 9.22398 0.37224 2 
-9.869 40.402 9.08464 0.35661 2 
-8.224 40.402 9.03695 0.59105 2 
-6.579 40.402 8.99152 0.48947 2 
-4.935 40.402 9.13258 0.35705 2 
-3.290 40.402 9.33113 0.53803 2 
-1.645 40.402 9.06715 0.55598 2 
0.000 40.402 9.09205 0.39519 2 
1.645 40.402 9.13112 0.72071 2 
3.290 40.402 7.10829 0.66098 2 
4.935 40.402 0.00000 -0.00000 0 
6.579 40.402 0.00000 -0.00000 0 
8.224 40.402 0.00000 -0.00000 0 
9.869 40.402 0.00000 -0.00000 0 
11.514 40.402 0.00000 -0.00000 0 
13.159 40.402 0.00000 -0.00000 0 
14.804 40.402 0.00000 -0.00000 0 
16.449 40.402 0.00000 -0.00000 0 
18.093 40.402 0.00000 -0.00000 0 
19.738 40.402 0.00000 -0.00000 0 
21.383 40.402 0.00000 -0.00000 0 
23.028 40.402 1.54427 -0.29799 2 
24.673 40.402 9.78847 1.58725 2 
26.318 40.402 9.09934 0.96484 2 
27.963 40.402 9.46876 0.76680 2 
29.607 40.402 9.28412 0.86873 2 
31.252 40.402 9.49949 1.26758 2 
32.897 40.402 9.58964 1.19022 2 
34.542 40.402 9.44663 1.23778 2 
36.187 40.402 9.25492 1.30563 2 
37.832 40.402 9.38335 1.14136 2 
39.477 40.402 9.61334 1.31656 2 
41.121 40.402 9.76328 1.20781 2 
42.766 40.402 9.76964 1.02302 2 
44.411 40.402 9.85204 1.42130 2 
46.056 40.402 9.95869 1.55785 2 
47.701 40.402 9.72488 1.31898 2 
49.346 40.402 9.76669 1.43611 2 
50.991 40.402 9.95578 1.24737 2 
52.636 40.402 10.03017 1.20405 2 
54.280 40.402 9.91272 1.46029 2 
55.925 40.402 10.19636 1.43463 2 
57.570 40.402 10.11642 1.53399 2 
59.215 40.402 9.96804 1.31680 2 
60.860 40.402 10.14546 1.31400 2 
62.505 40.402 10.09571 1.45273 2 
64.150 40.402 9.87551 1.18878 2 
65.794 40.402 10.28214 1.27415 2 
67.439 40.402 10.32703 1.24359 2 
69.084 40.402 10.33040 1.16628 2 
70.729 40.402 10.44242 1.37794 2 
72.374 40.402 10.60245 1.34811 2 
74.019 40.402 10.60542 1.30313 2 
75.664 40.402 10.53337 1.20931 2 
77.308 40.402 10.93222 1.20980 2 
78.953 40.402 10.96527 1.27901 2 
80.598 40.402 10.58350 1.18100 2 
82.243 40.402 10.62249 1.08261 2 
83.888 40.402 10.74849 1.05963 2 