TITLE = "B00012"
VARIABLES = "X [mm]", "Y [mm]", "Vx [m/s]", "Vy [m/s]", "Flag"
ZONE T="Frame 1", I=102, J=77, F=POINT
-13.159 53.561 0.00000 -0.00000 0 
-11.514 53.561 9.68695 0.23003 2 
-9.869 53.561 9.36446 0.26919 2 
-8.224 53.561 9.32171 0.43154 2 
-6.579 53.561 9.31815 0.31201 2 
-4.935 53.561 9.34249 0.21438 2 
-3.290 53.561 9.35485 0.15229 2 
-1.645 53.561 9.49538 0.10478 2 
0.000 53.561 9.63590 0.05726 2 
1.645 53.561 9.79757 0.08077 2 
3.290 53.561 0.00000 -0.00000 0 
4.935 53.561 0.00000 -0.00000 0 
6.579 53.561 0.00000 -0.00000 0 
8.224 53.561 0.00000 -0.00000 0 
9.869 53.561 0.00000 -0.00000 0 
11.514 53.561 0.00000 -0.00000 0 
13.159 53.561 0.00000 -0.00000 0 
14.804 53.561 0.00000 -0.00000 0 
16.449 53.561 0.00000 -0.00000 0 
18.093 53.561 0.00000 -0.00000 0 
19.738 53.561 0.00000 -0.00000 0 
21.383 53.561 0.00000 -0.00000 0 
23.028 53.561 4.81022 0.36653 2 
24.673 53.561 9.62044 0.73306 2 
26.318 53.561 9.52536 0.72799 2 
27.963 53.561 9.43029 0.72292 2 
29.607 53.561 9.58130 0.59738 2 
31.252 53.561 9.59644 0.55570 2 
32.897 53.561 9.61159 0.51401 2 
34.542 53.561 9.62673 0.47232 2 
36.187 53.561 9.64188 0.43063 2 
37.832 53.561 9.65702 0.38895 2 
39.477 53.561 9.67217 0.34726 2 
41.121 53.561 9.68731 0.30557 2 
42.766 53.561 9.50224 0.36558 2 
44.411 53.561 9.82979 0.51658 2 
46.056 53.561 9.81739 0.51429 2 
47.701 53.561 9.77308 0.38898 2 
49.346 53.561 9.63060 0.27966 2 
50.991 53.561 9.76876 0.40669 2 
52.636 53.561 9.99517 0.62120 2 
54.280 53.561 9.88696 0.63012 2 
55.925 53.561 9.88171 0.56559 2 
57.570 53.561 10.09618 0.60980 2 
59.215 53.561 10.17512 0.51595 2 
60.860 53.561 10.25405 0.42210 2 
62.505 53.561 10.33299 0.32825 2 
64.150 53.561 10.41193 0.23440 2 
65.794 53.561 10.38607 0.24698 2 
67.439 53.561 10.39284 0.25766 2 
69.084 53.561 10.39962 0.26834 2 
70.729 53.561 10.40639 0.27902 2 
72.374 53.561 10.41317 0.28970 2 
74.019 53.561 10.53395 0.31601 2 
75.664 53.561 10.65474 0.34232 2 
77.308 53.561 10.58951 0.14767 2 
78.953 53.561 10.56219 0.21245 2 
80.598 53.561 10.53487 0.27722 2 
82.243 53.561 10.46179 0.51039 2 
83.888 53.561 10.45522 0.41963 2 
85.533 53.561 10.56117 0.16340 2 
87.178 53.561 10.67599 0.25300 2 
88.822 53.561 10.56260 0.39313 2 
90.467 53.561 10.59051 0.62587 2 
92.112 53.561 10.62829 0.33532 2 
93.757 53.561 10.52523 0.33708 2 
95.402 53.561 10.42217 0.33884 2 
97.047 53.561 10.31911 0.34060 2 
98.692 53.561 10.83326 -0.07296 2 
100.336 53.561 -0.13661 0.30708 2 
101.981 53.561 0.00000 -0.00000 0 
103.626 53.561 0.00000 -0.00000 0 
105.271 53.561 0.00000 -0.00000 0 
106.916 53.561 5.72022 -0.01643 2 
108.561 53.561 11.44044 -0.03285 2 
110.206 53.561 10.90269 0.10456 2 
111.850 53.561 11.02851 0.17534 2 
113.495 53.561 11.03548 0.21458 2 
115.140 53.561 10.95254 0.29361 2 
116.785 53.561 10.86488 0.22999 2 
118.430 53.561 10.92543 0.04782 2 
120.075 53.561 11.01068 0.12724 2 
121.720 53.561 10.98343 0.09003 2 
123.364 53.561 10.89958 -0.03687 2 
125.009 53.561 11.30957 0.05047 2 
126.654 53.561 11.22621 0.04951 2 
128.299 53.561 10.73196 -0.17226 2 
129.944 53.561 11.04084 0.04718 2 
131.589 53.561 10.92315 0.03210 2 
133.234 53.561 10.93461 -0.10917 2 
134.879 53.561 10.83933 -0.10473 2 
136.523 53.561 11.12244 -0.14801 2 
138.168 53.561 10.57475 -0.19043 2 
139.813 53.561 10.55839 -0.31642 2 
141.458 53.561 10.93177 -0.24195 2 
143.103 53.561 10.86449 -0.18599 2 
144.748 53.561 10.71375 -0.13535 2 
146.393 53.561 10.78346 -0.13357 2 
148.037 53.561 10.68437 -0.17011 2 
149.682 53.561 10.69304 -0.13069 2 
151.327 53.561 10.70482 0.13312 2 
152.972 53.561 0.00000 -0.00000 0 
-13.159 51.916 0.00000 -0.00000 0 
-11.514 51.916 9.58008 0.37229 2 
-9.869 51.916 9.35588 0.48670 2 
-8.224 51.916 9.34897 0.81944 2 
-6.579 51.916 9.17993 0.58609 2 
-4.935 51.916 9.44940 0.57834 2 
-3.290 51.916 9.23365 0.65981 2 
-1.645 51.916 9.26015 0.62677 2 
0.000 51.916 9.61336 0.81938 2 
1.645 51.916 4.80668 0.40969 2 
3.290 51.916 0.00000 -0.00000 0 
4.935 51.916 0.00000 -0.00000 0 
6.579 51.916 0.00000 -0.00000 0 
8.224 51.916 0.00000 -0.00000 0 
9.869 51.916 0.00000 -0.00000 0 
11.514 51.916 0.00000 -0.00000 0 
13.159 51.916 0.00000 -0.00000 0 
14.804 51.916 0.00000 -0.00000 0 
16.449 51.916 0.00000 -0.00000 0 
18.093 51.916 0.00000 -0.00000 0 
19.738 51.916 0.00000 -0.00000 0 
21.383 51.916 0.00000 -0.00000 0 
23.028 51.916 0.04911 0.00588 2 
24.673 51.916 10.14001 0.68482 2 
26.318 51.916 9.45069 0.75868 2 
27.963 51.916 9.69454 1.14049 2 
29.607 51.916 9.75433 1.06185 2 
31.252 51.916 9.48947 1.15448 2 
32.897 51.916 9.37911 1.11709 2 
34.542 51.916 9.71489 1.25680 2 
36.187 51.916 9.31250 1.11228 2 
37.832 51.916 9.50510 1.07663 2 
39.477 51.916 9.73324 1.08831 2 
41.121 51.916 9.68497 1.34943 2 
42.766 51.916 9.45294 1.41702 2 
44.411 51.916 9.86182 1.50712 2 
46.056 51.916 9.69156 1.54511 2 
47.701 51.916 9.86856 1.46500 2 
49.346 51.916 9.68858 1.11229 2 
50.991 51.916 9.64419 1.03677 2 
52.636 51.916 9.85759 1.43516 2 
54.280 51.916 9.78305 1.23560 2 
55.925 51.916 9.79999 1.15252 2 
57.570 51.916 10.18606 1.39228 2 
59.215 51.916 10.09081 1.40158 2 
60.860 51.916 10.16465 1.14689 2 
62.505 51.916 10.35053 1.01220 2 
64.150 51.916 10.26171 1.50100 2 
65.794 51.916 10.14144 1.68362 2 
67.439 51.916 10.17831 1.68232 2 
69.084 51.916 10.16225 1.34571 2 
70.729 51.916 10.21897 1.33276 2 
72.374 51.916 10.37558 1.40683 2 
74.019 51.916 10.50690 1.25315 2 
75.664 51.916 10.49091 1.24522 2 
77.308 51.916 10.62909 1.20536 2 
78.953 51.916 10.56363 1.06414 2 
80.598 51.916 10.55534 0.88586 2 
82.243 51.916 10.55616 1.16127 2 
83.888 51.916 10.55126 1.20502 2 
85.533 51.916 10.54150 1.07375 2 
87.178 51.916 10.84754 1.07396 2 
88.822 51.916 10.89257 1.12969 2 
90.467 51.916 10.79073 0.91957 2 
92.112 51.916 10.77908 0.59350 2 
93.757 51.916 10.71952 0.98532 2 
95.402 51.916 10.79248 1.22955 2 
97.047 51.916 10.84610 1.24083 2 
98.692 51.916 11.19239 0.75746 2 
100.336 51.916 5.59619 0.37873 2 
101.981 51.916 0.00000 -0.00000 0 
103.626 51.916 0.00000 -0.00000 0 
105.271 51.916 0.00000 -0.00000 0 
106.916 51.916 5.46621 0.27773 2 
108.561 51.916 10.93243 0.55546 2 
110.206 51.916 11.14351 0.54145 2 
111.850 51.916 11.07388 0.60841 2 
113.495 51.916 10.93354 0.25039 2 
115.140 51.916 10.88356 0.23197 2 
116.785 51.916 11.07557 0.36181 2 
118.430 51.916 11.01725 0.10014 2 
120.075 51.916 11.10870 0.27998 2 
121.720 51.916 11.10148 0.14470 2 
123.364 51.916 10.91793 -0.18334 2 
125.009 51.916 11.27419 -0.01898 2 
126.654 51.916 11.07910 0.16337 2 
128.299 51.916 10.71183 0.00135 2 
129.944 51.916 10.92970 0.00232 2 
131.589 51.916 10.67952 -0.06630 2 
133.234 51.916 10.82298 0.13399 2 
134.879 51.916 10.73934 -0.10141 2 
136.523 51.916 11.05186 -0.27267 2 
138.168 51.916 10.69359 -0.30935 2 
139.813 51.916 10.56708 -0.30353 2 
141.458 51.916 10.88579 -0.33682 2 
143.103 51.916 10.69517 -0.49458 2 
144.748 51.916 10.67272 -0.57178 2 
146.393 51.916 10.95268 -0.46007 2 
148.037 51.916 10.83273 -0.30210 2 
149.682 51.916 10.81319 -0.62274 2 
151.327 51.916 11.07124 -0.33244 2 
152.972 51.916 0.00000 -0.00000 0 
-13.159 50.271 0.00000 -0.00000 0 
-11.514 50.271 9.65260 0.50079 2 
-9.869 50.271 9.23040 0.45785 2 
-8.224 50.271 9.26025 0.55941 2 
-6.579 50.271 9.28124 0.45916 2 
-4.935 50.271 9.39499 0.36751 2 
-3.290 50.271 9.21241 0.44093 2 
-1.645 50.271 9.35564 0.52164 2 
0.000 50.271 9.23146 0.65148 2 
1.645 50.271 4.61573 0.32574 2 
3.290 50.271 0.00000 -0.00000 0 
4.935 50.271 0.00000 -0.00000 0 
6.579 50.271 0.00000 -0.00000 0 
8.224 50.271 0.00000 -0.00000 0 
9.869 50.271 0.00000 -0.00000 0 
11.514 50.271 0.00000 -0.00000 0 
13.159 50.271 0.00000 -0.00000 0 
14.804 50.271 0.00000 -0.00000 0 
16.449 50.271 0.00000 -0.00000 0 
18.093 50.271 0.00000 -0.00000 0 
19.738 50.271 0.00000 -0.00000 0 
21.383 50.271 0.00000 -0.00000 0 
23.028 50.271 1.40515 -0.52122 2 
24.673 50.271 9.94094 0.74984 2 
26.318 50.271 9.37603 0.78936 2 
27.963 50.271 9.53149 0.80065 2 
29.607 50.271 9.48717 0.82455 2 
31.252 50.271 9.35913 1.00727 2 
32.897 50.271 9.37406 0.95989 2 
34.542 50.271 9.44243 0.98328 2 
36.187 50.271 9.50039 0.99979 2 
37.832 50.271 9.57716 1.08973 2 
39.477 50.271 9.66127 0.91679 2 
41.121 50.271 9.70094 1.03453 2 
42.766 50.271 9.62074 0.79753 2 
44.411 50.271 9.60600 1.11752 2 
46.056 50.271 9.81778 0.77933 2 
47.701 50.271 9.74618 0.87578 2 
49.346 50.271 9.64855 0.84373 2 
50.991 50.271 9.89353 0.96992 2 
52.636 50.271 9.95536 1.19684 2 
54.280 50.271 9.96190 1.02318 2 
55.925 50.271 10.00773 0.92831 2 
57.570 50.271 10.15237 1.07992 2 
59.215 50.271 10.02257 1.17171 2 
60.860 50.271 10.26532 0.95667 2 
62.505 50.271 10.31929 0.79082 2 
64.150 50.271 10.30087 1.30588 2 
65.794 50.271 10.22667 1.24852 2 
67.439 50.271 10.40660 1.09639 2 
69.084 50.271 10.48105 1.18139 2 
70.729 50.271 10.22545 0.97863 2 
72.374 50.271 10.16200 1.02559 2 
74.019 50.271 10.28000 0.75642 2 
75.664 50.271 10.37228 0.87171 2 
77.308 50.271 10.30151 1.00911 2 
78.953 50.271 10.54950 0.60532 2 
80.598 50.271 10.65835 0.93349 2 
82.243 50.271 10.50487 1.00917 2 
83.888 50.271 10.76060 0.64105 2 
85.533 50.271 10.72357 0.72910 2 
87.178 50.271 10.65184 0.69552 2 
88.822 50.271 11.00257 1.25181 2 
90.467 50.271 10.82555 1.04385 2 
92.112 50.271 10.86836 0.86363 2 
93.757 50.271 10.93921 1.01077 2 
95.402 50.271 10.60111 0.56297 2 
97.047 50.271 11.07162 0.73118 2 
98.692 50.271 11.01847 0.87014 2 
100.336 50.271 5.50923 0.43507 2 
101.981 50.271 0.00000 -0.00000 0 
103.626 50.271 0.00000 -0.00000 0 
105.271 50.271 0.00000 -0.00000 0 
106.916 50.271 4.94602 0.32796 2 
108.561 50.271 10.81441 0.81432 2 
110.206 50.271 10.94629 0.41040 2 
111.850 50.271 11.05768 0.34377 2 
113.495 50.271 10.98281 0.30899 2 
115.140 50.271 11.25353 0.06254 2 
116.785 50.271 11.12845 0.18872 2 
118.430 50.271 11.15562 0.03280 2 
120.075 50.271 10.89340 0.12571 2 
121.720 50.271 10.94106 0.16431 2 
123.364 50.271 10.90879 -0.00512 2 
125.009 50.271 11.06245 0.07060 2 
126.654 50.271 11.20645 0.13041 2 
128.299 50.271 10.71693 0.17797 2 
129.944 50.271 10.75763 0.08981 2 
131.589 50.271 10.80072 -0.04805 2 
133.234 50.271 11.04916 0.12669 2 
134.879 50.271 10.74332 -0.25607 2 
136.523 50.271 11.03859 0.08808 2 
138.168 50.271 10.47616 -0.32660 2 
139.813 50.271 10.52315 -0.31138 2 
141.458 50.271 10.84225 -0.00395 2 
143.103 50.271 10.59216 -0.28199 2 
144.748 50.271 10.68498 -0.47275 2 
146.393 50.271 10.69184 -0.31113 2 
148.037 50.271 10.77951 -0.28191 2 
149.682 50.271 10.68466 -0.76074 2 
151.327 50.271 10.90695 -0.66695 2 
152.972 50.271 0.00000 -0.00000 0 
-13.159 48.626 0.00000 -0.00000 0 
-11.514 48.626 9.50205 0.51410 2 
-9.869 48.626 9.14687 0.46716 2 
-8.224 48.626 9.05696 0.28253 2 
-6.579 48.626 9.27846 0.38054 2 
-4.935 48.626 9.17447 0.46973 2 
-3.290 48.626 8.98798 0.51981 2 
-1.645 48.626 9.45738 0.60908 2 
0.000 48.626 9.27496 0.55328 2 
1.645 48.626 7.15663 0.47006 2 
3.290 48.626 0.00000 -0.00000 0 
4.935 48.626 0.00000 -0.00000 0 
6.579 48.626 0.00000 -0.00000 0 
8.224 48.626 0.00000 -0.00000 0 
9.869 48.626 0.00000 -0.00000 0 
11.514 48.626 0.00000 -0.00000 0 
13.159 48.626 0.00000 -0.00000 0 
14.804 48.626 0.00000 -0.00000 0 
16.449 48.626 0.00000 -0.00000 0 
18.093 48.626 0.00000 -0.00000 0 
19.738 48.626 0.00000 -0.00000 0 
21.383 48.626 0.00000 -0.00000 0 
23.028 48.626 4.87094 0.40743 2 
24.673 48.626 9.74188 0.81485 2 
26.318 48.626 9.53469 0.86475 2 
27.963 48.626 9.38946 1.09479 2 
29.607 48.626 9.49540 1.09969 2 
31.252 48.626 9.43258 0.98055 2 
32.897 48.626 9.40251 1.03371 2 
34.542 48.626 9.46321 0.94438 2 
36.187 48.626 9.68488 1.07840 2 
37.832 48.626 9.57397 1.12015 2 
39.477 48.626 9.64414 1.17333 2 
41.121 48.626 9.78833 1.08077 2 
42.766 48.626 9.69689 1.13049 2 
44.411 48.626 9.59424 1.23405 2 
46.056 48.626 9.65805 1.11587 2 
47.701 48.626 9.83275 0.91192 2 
49.346 48.626 9.71628 1.22167 2 
50.991 48.626 9.69002 1.03066 2 
52.636 48.626 9.80619 1.10838 2 
54.280 48.626 10.10463 1.17410 2 
55.925 48.626 10.30165 1.05354 2 
57.570 48.626 10.15939 1.12836 2 
59.215 48.626 10.02018 1.06153 2 
60.860 48.626 10.29710 1.17775 2 
62.505 48.626 10.22223 1.30331 2 
64.150 48.626 10.22401 1.03660 2 
65.794 48.626 10.11560 1.09989 2 
67.439 48.626 10.43225 1.21820 2 
69.084 48.626 10.54748 1.11189 2 
70.729 48.626 10.58664 1.07501 2 
72.374 48.626 10.41231 0.95987 2 
74.019 48.626 10.49101 0.80676 2 
75.664 48.626 10.49797 1.02650 2 
77.308 48.626 10.35812 0.84710 2 
78.953 48.626 10.59631 1.01907 2 
80.598 48.626 10.73972 1.04281 2 
82.243 48.626 10.68939 0.84479 2 
83.888 48.626 10.99359 0.93849 2 
85.533 48.626 10.93457 0.88056 2 
87.178 48.626 10.68019 0.83988 2 
88.822 48.626 10.95822 1.01876 2 
90.467 48.626 11.04329 0.88139 2 
92.112 48.626 11.14470 1.01158 2 
93.757 48.626 10.89294 1.02253 2 
95.402 48.626 10.82075 0.79736 2 
97.047 48.626 10.89496 0.86839 2 
98.692 48.626 10.94917 0.42684 2 
100.336 48.626 12.40702 -0.17884 2 
101.981 48.626 0.00000 -0.00000 0 
103.626 48.626 0.00000 -0.00000 0 
105.271 48.626 0.00000 -0.00000 0 
106.916 48.626 5.75434 -0.25018 2 
108.561 48.626 11.34612 0.34960 2 
110.206 48.626 10.99459 0.47149 2 
111.850 48.626 10.95557 0.39942 2 
113.495 48.626 10.97558 0.49774 2 
115.140 48.626 11.13038 0.24769 2 
116.785 48.626 11.18132 0.01563 2 
118.430 48.626 10.90081 0.15286 2 
120.075 48.626 10.85262 0.25843 2 
121.720 48.626 10.89477 0.29063 2 
123.364 48.626 11.20529 0.23318 2 
125.009 48.626 11.07961 0.22786 2 
126.654 48.626 11.17300 -0.05090 2 
128.299 48.626 11.00868 -0.21892 2 
129.944 48.626 10.97679 -0.30874 2 
131.589 48.626 11.02610 0.01098 2 
133.234 48.626 11.05500 0.02847 2 
134.879 48.626 10.91626 -0.20648 2 
136.523 48.626 11.21421 -0.36235 2 
138.168 48.626 10.82859 -0.37789 2 
139.813 48.626 10.85575 -0.47521 2 
141.458 48.626 10.86603 -0.21000 2 
143.103 48.626 10.88829 -0.38265 2 
144.748 48.626 10.93922 -0.36348 2 
146.393 48.626 10.82906 -0.35120 2 
148.037 48.626 10.81038 -0.63608 2 
149.682 48.626 10.92067 -0.42205 2 
151.327 48.626 11.06911 -0.71678 2 
152.972 48.626 0.00000 -0.00000 0 
-13.159 46.981 0.00000 -0.00000 0 
-11.514 46.981 9.35150 0.52742 2 
-9.869 46.981 9.15419 0.47605 2 
-8.224 46.981 9.20068 0.30264 2 
-6.579 46.981 9.14609 0.54547 2 
-4.935 46.981 9.17606 0.60301 2 
-3.290 46.981 9.20421 0.41422 2 
-1.645 46.981 9.39957 0.61166 2 
0.000 46.981 9.17419 0.54535 2 
1.645 46.981 9.69753 0.61438 2 
3.290 46.981 0.00000 -0.00000 0 
4.935 46.981 0.00000 -0.00000 0 
6.579 46.981 0.00000 -0.00000 0 
8.224 46.981 0.00000 -0.00000 0 
9.869 46.981 0.00000 -0.00000 0 
11.514 46.981 0.00000 -0.00000 0 
13.159 46.981 0.00000 -0.00000 0 
14.804 46.981 0.00000 -0.00000 0 
16.449 46.981 0.00000 -0.00000 0 
18.093 46.981 0.00000 -0.00000 0 
19.738 46.981 0.00000 -0.00000 0 
21.383 46.981 0.00000 -0.00000 0 
23.028 46.981 4.97282 0.65967 2 
24.673 46.981 9.94563 1.31933 2 
26.318 46.981 9.47187 0.90109 2 
27.963 46.981 9.39677 0.98758 2 
29.607 46.981 9.31533 1.04209 2 
31.252 46.981 9.35986 0.88199 2 
32.897 46.981 9.45302 0.93712 2 
34.542 46.981 9.57813 0.99689 2 
36.187 46.981 9.46860 1.02765 2 
37.832 46.981 9.36984 0.93549 2 
39.477 46.981 9.57470 1.28291 2 
41.121 46.981 9.64279 1.04562 2 
42.766 46.981 9.64901 1.27927 2 
44.411 46.981 9.70893 1.30999 2 
46.056 46.981 9.69422 1.05050 2 
47.701 46.981 9.87232 1.18485 2 
49.346 46.981 9.77483 1.27002 2 
50.991 46.981 9.69665 1.28312 2 
52.636 46.981 9.61112 1.13448 2 
54.280 46.981 9.98190 1.18347 2 
55.925 46.981 10.22551 1.26397 2 
57.570 46.981 10.02103 1.07649 2 
59.215 46.981 10.01007 0.86524 2 
60.860 46.981 10.38157 0.84633 2 
62.505 46.981 10.02978 1.20192 2 
64.150 46.981 10.10614 1.10032 2 
65.794 46.981 10.16334 1.25154 2 
67.439 46.981 10.24754 1.41787 2 
69.084 46.981 10.37704 0.90815 2 
70.729 46.981 10.50246 1.01824 2 
72.374 46.981 10.68465 1.23074 2 
74.019 46.981 10.64245 1.13746 2 
75.664 46.981 10.66626 1.08936 2 
77.308 46.981 10.41472 0.68510 2 
78.953 46.981 10.31259 0.96049 2 
80.598 46.981 10.59365 1.25677 2 
82.243 46.981 10.84011 1.01790 2 
83.888 46.981 10.97630 1.05628 2 
85.533 46.981 10.78003 1.17002 2 
87.178 46.981 10.93654 1.11714 2 
88.822 46.981 11.01684 0.63323 2 
90.467 46.981 10.91819 0.72100 2 
92.112 46.981 10.90565 0.89394 2 
93.757 46.981 10.83558 0.95633 2 
95.402 46.981 10.98622 0.95398 2 
97.047 46.981 11.32280 0.80427 2 
98.692 46.981 11.17234 0.82464 2 
100.336 46.981 11.32987 0.71002 2 
101.981 46.981 0.00000 -0.00000 0 
103.626 46.981 0.00000 -0.00000 0 
105.271 46.981 0.00000 -0.00000 0 
106.916 46.981 6.80783 -0.21778 2 
108.561 46.981 11.86532 0.19037 2 
110.206 46.981 11.26384 0.52697 2 
111.850 46.981 11.08715 0.51193 2 
113.495 46.981 11.07956 0.47433 2 
115.140 46.981 11.10490 0.63058 2 
116.785 46.981 11.44593 0.39336 2 
118.430 46.981 11.10294 0.44245 2 
120.075 46.981 11.08491 0.33644 2 
121.720 46.981 10.92215 0.21124 2 
123.364 46.981 11.13249 -0.30924 2 
125.009 46.981 11.18798 -0.11778 2 
126.654 46.981 11.14059 -0.30112 2 
128.299 46.981 11.32071 -0.40711 2 
129.944 46.981 11.13053 -0.16613 2 
131.589 46.981 11.25461 0.06621 2 
133.234 46.981 11.14678 -0.15681 2 
134.879 46.981 10.99428 -0.18489 2 
136.523 46.981 10.99766 -0.34774 2 
138.168 46.981 11.05467 -0.15775 2 
139.813 46.981 10.82235 -0.27296 2 
141.458 46.981 10.64046 -0.24517 2 
143.103 46.981 11.00726 -0.53313 2 
144.748 46.981 10.90373 -0.54760 2 
146.393 46.981 10.86350 -0.49896 2 
148.037 46.981 10.82689 -0.34280 2 
149.682 46.981 11.02261 -0.27792 2 
151.327 46.981 11.07460 -0.64349 2 
152.972 46.981 0.00000 -0.00000 0 
-13.159 45.336 0.00000 -0.00000 0 
-11.514 45.336 9.48580 0.37080 2 
-9.869 45.336 9.08888 0.37040 2 
-8.224 45.336 9.26157 0.35452 2 
-6.579 45.336 9.16520 0.77278 2 
-4.935 45.336 9.37457 0.59673 2 
-3.290 45.336 9.43713 0.46181 2 
-1.645 45.336 9.01170 0.49920 2 
0.000 45.336 8.99471 0.53679 2 
1.645 45.336 9.18995 0.41840 2 
3.290 45.336 4.69239 0.14499 2 
4.935 45.336 0.00000 -0.00000 0 
6.579 45.336 0.00000 -0.00000 0 
8.224 45.336 0.00000 -0.00000 0 
9.869 45.336 0.00000 -0.00000 0 
11.514 45.336 0.00000 -0.00000 0 
13.159 45.336 0.00000 -0.00000 0 
14.804 45.336 0.00000 -0.00000 0 
16.449 45.336 0.00000 -0.00000 0 
18.093 45.336 0.00000 -0.00000 0 
19.738 45.336 0.00000 -0.00000 0 
21.383 45.336 0.00000 -0.00000 0 
23.028 45.336 4.87045 0.65114 2 
24.673 45.336 9.74091 1.30228 2 
26.318 45.336 9.26937 0.99849 2 
27.963 45.336 9.40277 0.90675 2 
29.607 45.336 9.28934 1.03524 2 
31.252 45.336 9.39355 1.05167 2 
32.897 45.336 9.40661 0.90353 2 
34.542 45.336 9.42630 1.18775 2 
36.187 45.336 9.58673 1.06588 2 
37.832 45.336 9.55108 0.98606 2 
39.477 45.336 9.53122 1.29175 2 
41.121 45.336 9.67196 1.07267 2 
42.766 45.336 9.70417 1.33154 2 
44.411 45.336 9.71618 1.28824 2 
46.056 45.336 9.75065 1.15526 2 
47.701 45.336 9.66589 1.32707 2 
49.346 45.336 9.69875 1.13632 2 
50.991 45.336 9.59795 1.30869 2 
52.636 45.336 9.73785 1.24823 2 
54.280 45.336 9.85159 1.15847 2 
55.925 45.336 9.99772 1.46577 2 
57.570 45.336 9.97860 1.26974 2 
59.215 45.336 10.09366 1.13832 2 
60.860 45.336 10.25429 0.96456 2 
62.505 45.336 10.19352 1.32349 2 
64.150 45.336 10.32620 1.06489 2 
65.794 45.336 10.39357 1.29284 2 
67.439 45.336 10.26916 1.09606 2 
69.084 45.336 10.33104 1.12545 2 
70.729 45.336 10.11177 1.06038 2 
72.374 45.336 10.36118 1.05249 2 
74.019 45.336 10.55894 1.10039 2 
75.664 45.336 10.66573 1.20412 2 
77.308 45.336 10.65420 1.11388 2 
78.953 45.336 10.41702 1.10643 2 
80.598 45.336 10.49175 1.07581 2 
82.243 45.336 10.59771 1.18816 2 
83.888 45.336 10.73623 1.24092 2 
85.533 45.336 10.79624 1.34695 2 
87.178 45.336 10.98622 1.20490 2 
88.822 45.336 11.07028 0.93549 2 
90.467 45.336 10.83947 1.06059 2 
92.112 45.336 10.82004 0.80158 2 
93.757 45.336 11.05045 1.12988 2 
95.402 45.336 11.06332 0.93884 2 
97.047 45.336 11.06729 0.79650 2 
98.692 45.336 11.18486 0.53327 2 
100.336 45.336 10.78569 1.36084 2 
101.981 45.336 3.60546 0.29868 2 
103.626 45.336 0.00000 -0.00000 0 
105.271 45.336 0.00000 -0.00000 0 
106.916 45.336 5.89265 -0.13092 2 
108.561 45.336 11.41526 0.49586 2 
110.206 45.336 11.37265 0.28724 2 
111.850 45.336 11.29947 0.30250 2 
113.495 45.336 11.26599 0.20699 2 
115.140 45.336 11.17493 0.36015 2 
116.785 45.336 11.32319 0.30710 2 
118.430 45.336 11.27895 0.36029 2 
120.075 45.336 11.20554 0.09273 2 
121.720 45.336 11.02262 -0.06293 2 
123.364 45.336 11.08184 -0.02593 2 
125.009 45.336 11.18256 0.04262 2 
126.654 45.336 10.95954 -0.21205 2 
128.299 45.336 11.26407 -0.22499 2 
129.944 45.336 11.09845 0.01325 2 
131.589 45.336 11.34161 0.02412 2 
133.234 45.336 10.96483 -0.08965 2 
134.879 45.336 10.91446 -0.22999 2 
136.523 45.336 10.82659 -0.34620 2 
138.168 45.336 11.09823 0.04682 2 
139.813 45.336 10.70308 -0.16070 2 
141.458 45.336 10.72885 -0.27387 2 
143.103 45.336 10.98219 -0.38972 2 
144.748 45.336 10.94544 -0.22999 2 
146.393 45.336 10.92082 -0.30307 2 
148.037 45.336 10.82338 -0.11207 2 
149.682 45.336 10.80076 -0.55319 2 
151.327 45.336 11.08010 -0.57019 2 
152.972 45.336 0.00000 -0.00000 0 
-13.159 43.692 0.00000 -0.00000 0 
-11.514 43.692 9.57196 0.27964 2 
-9.869 43.692 9.01699 0.44722 2 
-8.224 43.692 9.11149 0.42645 2 
-6.579 43.692 9.29211 0.47809 2 
-4.935 43.692 9.23093 0.23464 2 
-3.290 43.692 9.26674 0.53989 2 
-1.645 43.692 9.06721 0.61059 2 
0.000 43.692 9.05741 0.58882 2 
1.645 43.692 9.14510 0.68154 2 
3.290 43.692 9.38478 0.28999 2 
4.935 43.692 0.00000 -0.00000 0 
6.579 43.692 0.00000 -0.00000 0 
8.224 43.692 0.00000 -0.00000 0 
9.869 43.692 0.00000 -0.00000 0 
11.514 43.692 0.00000 -0.00000 0 
13.159 43.692 0.00000 -0.00000 0 
14.804 43.692 0.00000 -0.00000 0 
16.449 43.692 0.00000 -0.00000 0 
18.093 43.692 0.00000 -0.00000 0 
19.738 43.692 0.00000 -0.00000 0 
21.383 43.692 0.00000 -0.00000 0 
23.028 43.692 4.90780 0.56332 2 
24.673 43.692 9.81559 1.12663 2 
26.318 43.692 9.13893 1.01489 2 
27.963 43.692 9.25053 1.01646 2 
29.607 43.692 9.29800 1.07980 2 
31.252 43.692 9.56640 1.18371 2 
32.897 43.692 9.40738 1.33539 2 
34.542 43.692 9.26028 1.10711 2 
36.187 43.692 9.60995 1.39300 2 
37.832 43.692 9.71271 1.40333 2 
39.477 43.692 9.59073 1.07469 2 
41.121 43.692 9.59332 1.13019 2 
42.766 43.692 9.44540 1.29856 2 
44.411 43.692 9.46115 1.21773 2 
46.056 43.692 9.67883 1.10891 2 
47.701 43.692 9.78619 1.29032 2 
49.346 43.692 9.60514 1.26886 2 
50.991 43.692 9.60040 1.18340 2 
52.636 43.692 9.97318 1.23310 2 
54.280 43.692 9.79598 1.23110 2 
55.925 43.692 9.96633 1.29861 2 
57.570 43.692 10.14190 1.28050 2 
59.215 43.692 10.20662 1.26132 2 
60.860 43.692 10.13574 1.25153 2 
62.505 43.692 10.27933 1.56762 2 
64.150 43.692 10.19727 1.26758 2 
65.794 43.692 10.39506 1.18269 2 
67.439 43.692 10.40415 1.08071 2 
69.084 43.692 10.37650 1.31403 2 
70.729 43.692 10.27879 1.19692 2 
72.374 43.692 10.21893 0.99632 2 
74.019 43.692 10.57383 1.18660 2 
75.664 43.692 10.76182 1.23691 2 
77.308 43.692 10.57352 1.24751 2 
78.953 43.692 10.78696 1.35338 2 
80.598 43.692 10.78557 0.86655 2 
82.243 43.692 10.64138 0.95917 2 
83.888 43.692 10.80566 1.22863 2 
85.533 43.692 10.68903 1.08540 2 
87.178 43.692 10.75619 1.08046 2 
88.822 43.692 10.81449 1.18274 2 
90.467 43.692 10.74625 0.95950 2 
92.112 43.692 10.73969 0.99110 2 
93.757 43.692 10.79012 1.12319 2 
95.402 43.692 10.85292 0.82366 2 
97.047 43.692 10.68971 1.12551 2 
98.692 43.692 10.94308 0.55789 2 
100.336 43.692 11.29891 1.13466 2 
101.981 43.692 8.61242 0.42914 2 
103.626 43.692 0.00000 -0.00000 0 
105.271 43.692 0.00000 -0.00000 0 
106.916 43.692 4.97748 -0.04406 2 
108.561 43.692 10.91314 0.41977 2 
110.206 43.692 11.12551 0.46171 2 
111.850 43.692 11.35960 0.60797 2 
113.495 43.692 11.44771 0.36127 2 
115.140 43.692 11.18218 0.36151 2 
116.785 43.692 10.96234 0.17157 2 
118.430 43.692 10.86940 0.24802 2 
120.075 43.692 11.28554 0.07663 2 
121.720 43.692 11.18938 -0.16900 2 
123.364 43.692 11.35135 -0.02501 2 
125.009 43.692 11.29250 0.03116 2 
126.654 43.692 10.94579 -0.14566 2 
128.299 43.692 10.99236 -0.15314 2 
129.944 43.692 10.86046 -0.32280 2 
131.589 43.692 11.28230 -0.05529 2 
133.234 43.692 10.90173 -0.15934 2 
134.879 43.692 11.01871 -0.37604 2 
136.523 43.692 11.04161 -0.54852 2 
138.168 43.692 10.97112 -0.26928 2 
139.813 43.692 10.97708 -0.33944 2 
141.458 43.692 11.20316 -0.32661 2 
143.103 43.692 11.02713 -0.19268 2 
144.748 43.692 11.06400 -0.15440 2 
146.393 43.692 10.95885 -0.46442 2 
148.037 43.692 10.73599 -0.28998 2 
149.682 43.692 10.81830 -0.53807 2 
151.327 43.692 10.99289 -0.74385 2 
152.972 43.692 0.00000 -0.00000 0 
-13.159 42.047 0.00000 -0.00000 0 
-11.514 42.047 9.23980 0.22549 2 
-9.869 42.047 9.16210 0.45955 2 
-8.224 42.047 9.04852 0.39892 2 
-6.579 42.047 9.09297 0.41581 2 
-4.935 42.047 9.05971 0.42775 2 
-3.290 42.047 9.17580 0.70013 2 
-1.645 42.047 9.21824 0.69275 2 
0.000 42.047 9.23439 0.53752 2 
1.645 42.047 9.15367 0.76813 2 
3.290 42.047 9.45137 0.52358 2 
4.935 42.047 0.00000 -0.00000 0 
6.579 42.047 0.00000 -0.00000 0 
8.224 42.047 0.00000 -0.00000 0 
9.869 42.047 0.00000 -0.00000 0 
11.514 42.047 0.00000 -0.00000 0 
13.159 42.047 0.00000 -0.00000 0 
14.804 42.047 0.00000 -0.00000 0 
16.449 42.047 0.00000 -0.00000 0 
18.093 42.047 0.00000 -0.00000 0 
19.738 42.047 0.00000 -0.00000 0 
21.383 42.047 0.00000 -0.00000 0 
23.028 42.047 0.36048 -0.21654 2 
24.673 42.047 9.64457 0.76539 2 
26.318 42.047 9.23486 0.89681 2 
27.963 42.047 9.25449 1.22777 2 
29.607 42.047 9.14491 1.26921 2 
31.252 42.047 9.20970 1.09445 2 
32.897 42.047 9.35027 1.18119 2 
34.542 42.047 9.29759 1.17466 2 
36.187 42.047 9.54842 1.24253 2 
37.832 42.047 9.54691 1.17310 2 
39.477 42.047 9.60988 1.24392 2 
41.121 42.047 9.56289 1.41887 2 
42.766 42.047 9.66846 1.28000 2 
44.411 42.047 9.54208 1.10530 2 
46.056 42.047 9.66948 1.15964 2 
47.701 42.047 9.71804 1.39282 2 
49.346 42.047 9.69642 1.45120 2 
50.991 42.047 9.76418 1.11117 2 
52.636 42.047 9.76107 1.20710 2 
54.280 42.047 9.81135 1.37315 2 
55.925 42.047 10.06071 1.22295 2 
57.570 42.047 10.19775 1.30395 2 
59.215 42.047 10.15285 1.28661 2 
60.860 42.047 10.09363 1.23358 2 
62.505 42.047 10.22972 1.37466 2 
64.150 42.047 10.28782 1.20369 2 
65.794 42.047 10.50358 1.35333 2 
67.439 42.047 10.34958 1.44026 2 
69.084 42.047 10.43355 1.23232 2 
70.729 42.047 10.48558 1.06110 2 
72.374 42.047 10.66671 1.13095 2 
74.019 42.047 10.65126 1.03302 2 
75.664 42.047 10.68074 1.11735 2 
77.308 42.047 10.41938 1.20939 2 
78.953 42.047 10.71496 1.16291 2 
80.598 42.047 10.75645 1.24644 2 
82.243 42.047 10.90620 1.06507 2 
83.888 42.047 10.68080 1.08798 2 
85.533 42.047 10.53143 0.95572 2 
87.178 42.047 10.80030 1.04825 2 
88.822 42.047 10.81072 0.82780 2 
90.467 42.047 10.61314 0.91995 2 
92.112 42.047 10.81809 1.18020 2 
93.757 42.047 11.02961 0.98011 2 
95.402 42.047 10.86159 0.71874 2 
97.047 42.047 11.08326 1.05803 2 
98.692 42.047 11.07942 1.22658 2 
100.336 42.047 11.49166 1.13971 2 
101.981 42.047 13.61937 0.55961 2 
103.626 42.047 0.00000 -0.00000 0 
105.271 42.047 0.00000 -0.00000 0 
106.916 42.047 5.10904 -0.15454 2 
108.561 42.047 11.15360 0.58849 2 
110.206 42.047 11.27250 0.53441 2 
111.850 42.047 11.51863 0.40538 2 
113.495 42.047 11.41536 0.59396 2 
115.140 42.047 11.18943 0.36288 2 
116.785 42.047 11.16497 0.47743 2 
118.430 42.047 11.26812 0.06552 2 
120.075 42.047 11.38690 -0.00165 2 
121.720 42.047 11.25567 0.14332 2 
123.364 42.047 11.45556 -0.10475 2 
125.009 42.047 11.19119 -0.25627 2 
126.654 42.047 11.10852 -0.31181 2 
128.299 42.047 10.98268 -0.26555 2 
129.944 42.047 11.14730 -0.45518 2 
131.589 42.047 11.19467 -0.36332 2 
133.234 42.047 11.23136 -0.40582 2 
134.879 42.047 11.03225 -0.53908 2 
136.523 42.047 10.84615 -0.67078 2 
138.168 42.047 11.05256 -0.47753 2 
139.813 42.047 11.08033 -0.52156 2 
141.458 42.047 11.09455 -0.46938 2 
143.103 42.047 10.83459 -0.47979 2 
144.748 42.047 10.87445 -0.07728 2 
146.393 42.047 11.07422 -0.25187 2 
148.037 42.047 10.74474 -0.39272 2 
149.682 42.047 10.88307 -0.52455 2 
151.327 42.047 11.03284 -0.51933 2 
152.972 42.047 0.00000 -0.00000 0 
-13.159 40.402 0.00000 -0.00000 0 
-11.514 40.402 9.23558 0.29074 2 
-9.869 40.402 9.09805 0.37006 2 
-8.224 40.402 8.92571 0.27692 2 
-6.579 40.402 8.95328 0.53452 2 
-4.935 40.402 9.03699 0.47388 2 
-3.290 40.402 9.13127 0.58927 2 
-1.645 40.402 9.10480 0.61912 2 
0.000 40.402 9.23617 0.59282 2 
1.645 40.402 8.87735 0.75462 2 
3.290 40.402 9.32985 0.10754 2 
4.935 40.402 0.00000 -0.00000 0 
6.579 40.402 0.00000 -0.00000 0 
8.224 40.402 0.00000 -0.00000 0 
9.869 40.402 0.00000 -0.00000 0 
11.514 40.402 0.00000 -0.00000 0 
13.159 40.402 0.00000 -0.00000 0 
14.804 40.402 0.00000 -0.00000 0 
16.449 40.402 0.00000 -0.00000 0 
18.093 40.402 0.00000 -0.00000 0 
19.738 40.402 0.00000 -0.00000 0 
21.383 40.402 0.00000 -0.00000 0 
23.028 40.402 4.83588 0.57494 2 
24.673 40.402 9.67176 1.14988 2 
26.318 40.402 9.31127 0.86102 2 
27.963 40.402 9.37163 1.31809 2 
29.607 40.402 9.27230 1.18295 2 
31.252 40.402 9.01590 1.05332 2 
32.897 40.402 9.35657 1.11638 2 
34.542 40.402 9.31899 1.36557 2 
36.187 40.402 9.49983 1.14693 2 
37.832 40.402 9.53576 1.26419 2 
39.477 40.402 9.48478 1.17719 2 
41.121 40.402 9.61709 1.10284 2 
42.766 40.402 9.62447 1.21767 2 
44.411 40.402 9.44020 1.36029 2 
46.056 40.402 9.63348 1.38532 2 
47.701 40.402 9.74391 1.32367 2 
49.346 40.402 10.01572 1.37715 2 
50.991 40.402 9.85186 1.32040 2 
52.636 40.402 9.81722 1.20018 2 
54.280 40.402 9.86953 1.47036 2 
55.925 40.402 10.00402 1.35513 2 
57.570 40.402 10.11336 1.42850 2 
59.215 40.402 10.09902 1.22281 2 
60.860 40.402 9.95961 1.09793 2 
62.505 40.402 10.10763 1.37288 2 
64.150 40.402 10.32866 1.21534 2 
65.794 40.402 10.61846 1.44663 2 
67.439 40.402 10.38321 1.57083 2 
69.084 40.402 10.46049 1.34496 2 
70.729 40.402 10.45597 1.14215 2 
72.374 40.402 10.75233 1.07528 2 
74.019 40.402 10.40381 1.14409 2 
75.664 40.402 10.47343 1.03104 2 
77.308 40.402 10.39785 1.32248 2 
78.953 40.402 10.57388 1.13578 2 
80.598 40.402 10.75008 1.16894 2 
82.243 40.402 10.87042 1.32336 2 
83.888 40.402 10.50926 1.40090 2 