TITLE = "B00061"
VARIABLES = "X [mm]", "Y [mm]", "Vx [m/s]", "Vy [m/s]", "Flag"
ZONE T="Frame 1", I=102, J=77, F=POINT
-13.159 53.561 0.00000 -0.00000 0 
-11.514 53.561 9.25909 0.10564 2 
-9.869 53.561 9.32700 0.06349 2 
-8.224 53.561 9.14058 0.00618 2 
-6.579 53.561 8.95416 -0.05113 2 
-4.935 53.561 8.76775 -0.10844 2 
-3.290 53.561 8.58133 -0.16575 2 
-1.645 53.561 8.39492 -0.22306 2 
0.000 53.561 9.39643 -0.32247 2 
1.645 53.561 4.69821 -0.16123 2 
3.290 53.561 0.00000 -0.00000 0 
4.935 53.561 0.00000 -0.00000 0 
6.579 53.561 0.00000 -0.00000 0 
8.224 53.561 0.00000 -0.00000 0 
9.869 53.561 0.00000 -0.00000 0 
11.514 53.561 0.00000 -0.00000 0 
13.159 53.561 0.00000 -0.00000 0 
14.804 53.561 0.00000 -0.00000 0 
16.449 53.561 0.00000 -0.00000 0 
18.093 53.561 0.00000 -0.00000 0 
19.738 53.561 0.00000 -0.00000 0 
21.383 53.561 0.00000 -0.00000 0 
23.028 53.561 4.73807 0.29963 2 
24.673 53.561 9.47614 0.59926 2 
26.318 53.561 9.12764 0.52544 2 
27.963 53.561 9.20928 0.55375 2 
29.607 53.561 9.29092 0.58205 2 
31.252 53.561 9.37255 0.61035 2 
32.897 53.561 9.45419 0.63865 2 
34.542 53.561 9.53583 0.66695 2 
36.187 53.561 9.75280 0.72951 2 
37.832 53.561 9.72937 0.71958 2 
39.477 53.561 9.70593 0.70966 2 
41.121 53.561 9.68250 0.69973 2 
42.766 53.561 9.65907 0.68981 2 
44.411 53.561 9.63563 0.67989 2 
46.056 53.561 9.65498 0.67335 2 
47.701 53.561 9.67432 0.66682 2 
49.346 53.561 9.69367 0.66029 2 
50.991 53.561 9.71301 0.65376 2 
52.636 53.561 9.73236 0.64723 2 
54.280 53.561 9.75170 0.64070 2 
55.925 53.561 9.77105 0.63417 2 
57.570 53.561 9.79039 0.62764 2 
59.215 53.561 9.80974 0.62111 2 
60.860 53.561 9.82908 0.61458 2 
62.505 53.561 9.84843 0.60805 2 
64.150 53.561 9.86777 0.60152 2 
65.794 53.561 9.88712 0.59499 2 
67.439 53.561 9.96800 0.60072 2 
69.084 53.561 10.04888 0.60646 2 
70.729 53.561 10.12976 0.61219 2 
72.374 53.561 10.21064 0.61793 2 
74.019 53.561 10.22934 0.61169 2 
75.664 53.561 10.24805 0.60545 2 
77.308 53.561 10.26675 0.59921 2 
78.953 53.561 10.28546 0.59297 2 
80.598 53.561 10.30416 0.58673 2 
82.243 53.561 10.32287 0.58049 2 
83.888 53.561 10.34157 0.57426 2 
85.533 53.561 10.36028 0.56802 2 
87.178 53.561 10.37898 0.56178 2 
88.822 53.561 10.39769 0.55554 2 
90.467 53.561 10.41639 0.54930 2 
92.112 53.561 10.43510 0.54306 2 
93.757 53.561 8.69591 0.45255 2 
95.402 53.561 6.95673 0.36204 2 
97.047 53.561 5.21755 0.27153 2 
98.692 53.561 3.47837 0.18102 2 
100.336 53.561 1.73918 0.09051 2 
101.981 53.561 0.00000 -0.00000 0 
103.626 53.561 0.00000 -0.00000 0 
105.271 53.561 0.00000 -0.00000 0 
106.916 53.561 -0.20000 0.62670 2 
108.561 53.561 11.30623 0.55385 2 
110.206 53.561 11.13390 0.43717 2 
111.850 53.561 11.08968 0.35559 2 
113.495 53.561 11.05595 0.38622 2 
115.140 53.561 11.11616 0.51784 2 
116.785 53.561 11.11297 0.46941 2 
118.430 53.561 11.02764 0.39261 2 
120.075 53.561 11.16309 0.23621 2 
121.720 53.561 11.41424 0.18065 2 
123.364 53.561 11.18640 0.34991 2 
125.009 53.561 11.18969 0.38599 2 
126.654 53.561 11.05474 0.29264 2 
128.299 53.561 11.15896 0.19895 2 
129.944 53.561 11.30461 0.03980 2 
131.589 53.561 10.94870 -0.13420 2 
133.234 53.561 11.26697 -0.12484 2 
134.879 53.561 10.96300 -0.14173 2 
136.523 53.561 11.01668 -0.17918 2 
138.168 53.561 10.96600 -0.13897 2 
139.813 53.561 11.20382 -0.17097 2 
141.458 53.561 10.95831 -0.33364 2 
143.103 53.561 10.97811 -0.31892 2 
144.748 53.561 11.11216 -0.36537 2 
146.393 53.561 11.15368 -0.50251 2 
148.037 53.561 10.91523 -0.41094 2 
149.682 53.561 11.15191 -0.34000 2 
151.327 53.561 0.00000 -0.00000 0 
152.972 53.561 0.00000 -0.00000 0 
-13.159 51.916 0.00000 -0.00000 0 
-11.514 51.916 9.24098 0.29494 2 
-9.869 51.916 9.31654 0.53612 2 
-8.224 51.916 9.28716 0.73317 2 
-6.579 51.916 9.50527 0.64496 2 
-4.935 51.916 9.22694 0.44729 2 
-3.290 51.916 8.94861 0.24963 2 
-1.645 51.916 9.71499 0.46942 2 
0.000 51.916 9.63092 0.12277 2 
1.645 51.916 4.82242 -0.06833 2 
3.290 51.916 0.00000 -0.00000 0 
4.935 51.916 0.00000 -0.00000 0 
6.579 51.916 0.00000 -0.00000 0 
8.224 51.916 0.00000 -0.00000 0 
9.869 51.916 0.00000 -0.00000 0 
11.514 51.916 0.00000 -0.00000 0 
13.159 51.916 0.00000 -0.00000 0 
14.804 51.916 0.00000 -0.00000 0 
16.449 51.916 0.00000 -0.00000 0 
18.093 51.916 0.00000 -0.00000 0 
19.738 51.916 0.00000 -0.00000 0 
21.383 51.916 0.00000 -0.00000 0 
23.028 51.916 5.04838 0.51532 2 
24.673 51.916 10.09675 1.03064 2 
26.318 51.916 9.55964 0.78100 2 
27.963 51.916 9.64554 0.90994 2 
29.607 51.916 9.86617 0.97336 2 
31.252 51.916 9.75173 0.98217 2 
32.897 51.916 9.71445 1.03694 2 
34.542 51.916 9.67717 1.09172 2 
36.187 51.916 10.05891 0.91795 2 
37.832 51.916 9.98334 0.88364 2 
39.477 51.916 9.93768 1.14099 2 
41.121 51.916 9.89201 1.39834 2 
42.766 51.916 9.70172 1.43698 2 
44.411 51.916 9.64644 0.99315 2 
46.056 51.916 10.02040 1.23638 2 
47.701 51.916 10.21273 1.30338 2 
49.346 51.916 10.21958 1.12523 2 
50.991 51.916 10.08523 0.84586 2 
52.636 51.916 9.98725 1.26504 2 
54.280 51.916 10.07894 1.30487 2 
55.925 51.916 10.28354 1.11154 2 
57.570 51.916 10.22399 0.75973 2 
59.215 51.916 10.48874 0.93865 2 
60.860 51.916 10.35221 1.27640 2 
62.505 51.916 10.08643 0.78675 2 
64.150 51.916 9.83966 1.11163 2 
65.794 51.916 10.22778 1.24159 2 
67.439 51.916 10.61621 1.02080 2 
69.084 51.916 10.40150 1.30115 2 
70.729 51.916 10.62680 1.53760 2 
72.374 51.916 10.94435 1.43659 2 
74.019 51.916 10.59451 1.56746 2 
75.664 51.916 10.83235 1.50618 2 
77.308 51.916 10.93773 1.35784 2 
78.953 51.916 10.75984 0.84534 2 
80.598 51.916 10.70060 1.30430 2 
82.243 51.916 10.65929 0.73219 2 
83.888 51.916 10.81108 0.91446 2 
85.533 51.916 11.25615 0.93991 2 
87.178 51.916 11.06279 0.83942 2 
88.822 51.916 10.96531 1.25226 2 
90.467 51.916 11.19977 1.23655 2 
92.112 51.916 11.07708 0.98689 2 
93.757 51.916 11.00471 0.97421 2 
95.402 51.916 10.98396 0.78120 2 
97.047 51.916 11.34099 0.79907 2 
98.692 51.916 11.48626 0.78054 2 
100.336 51.916 5.29012 0.08278 2 
101.981 51.916 0.00000 -0.00000 0 
103.626 51.916 0.00000 -0.00000 0 
105.271 51.916 0.00000 -0.00000 0 
106.916 51.916 5.51563 0.60482 2 
108.561 51.916 11.31099 0.73036 2 
110.206 51.916 11.03834 0.81356 2 
111.850 51.916 10.89326 0.56255 2 
113.495 51.916 11.04854 0.63319 2 
115.140 51.916 10.92145 0.64290 2 
116.785 51.916 11.37543 0.47223 2 
118.430 51.916 11.04138 0.72081 2 
120.075 51.916 11.16111 0.58396 2 
121.720 51.916 11.18849 0.26939 2 
123.364 51.916 11.03831 0.32938 2 
125.009 51.916 11.25603 0.26149 2 
126.654 51.916 11.17430 0.23383 2 
128.299 51.916 11.02639 0.32438 2 
129.944 51.916 11.37911 -0.01096 2 
131.589 51.916 10.81842 0.00728 2 
133.234 51.916 11.39076 -0.32663 2 
134.879 51.916 11.11262 -0.34812 2 
136.523 51.916 11.15352 -0.09956 2 
138.168 51.916 11.10725 -0.19882 2 
139.813 51.916 11.09473 -0.42083 2 
141.458 51.916 11.01790 -0.44242 2 
143.103 51.916 10.93164 -0.48558 2 
144.748 51.916 11.01992 -0.69433 2 
146.393 51.916 11.01180 -0.85356 2 
148.037 51.916 10.74992 -1.02864 2 
149.682 51.916 10.80069 -0.99887 2 
151.327 51.916 11.14975 -0.75216 2 
152.972 51.916 0.00000 -0.00000 0 
-13.159 50.271 0.00000 -0.00000 0 
-11.514 50.271 9.36999 0.25600 2 
-9.869 50.271 9.30668 0.40527 2 
-8.224 50.271 9.14142 0.40546 2 
-6.579 50.271 9.28813 0.43179 2 
-4.935 50.271 9.24084 0.61320 2 
-3.290 50.271 9.22398 0.52465 2 
-1.645 50.271 9.14494 0.44903 2 
0.000 50.271 9.86542 0.56801 2 
1.645 50.271 5.07082 0.11748 2 
3.290 50.271 0.00000 -0.00000 0 
4.935 50.271 0.00000 -0.00000 0 
6.579 50.271 0.00000 -0.00000 0 
8.224 50.271 0.00000 -0.00000 0 
9.869 50.271 0.00000 -0.00000 0 
11.514 50.271 0.00000 -0.00000 0 
13.159 50.271 0.00000 -0.00000 0 
14.804 50.271 0.00000 -0.00000 0 
16.449 50.271 0.00000 -0.00000 0 
18.093 50.271 0.00000 -0.00000 0 
19.738 50.271 0.00000 -0.00000 0 
21.383 50.271 0.00000 -0.00000 0 
23.028 50.271 5.35868 0.73101 2 
24.673 50.271 10.07346 1.03019 2 
26.318 50.271 9.99163 1.03656 2 
27.963 50.271 9.53760 0.97542 2 
29.607 50.271 9.48009 1.05169 2 
31.252 50.271 9.45032 1.03935 2 
32.897 50.271 9.49336 0.93518 2 
34.542 50.271 9.46150 0.90195 2 
36.187 50.271 9.63473 1.04751 2 
37.832 50.271 9.62477 1.05393 2 
39.477 50.271 9.78023 1.03291 2 
41.121 50.271 9.69607 1.10616 2 
42.766 50.271 9.81119 1.08478 2 
44.411 50.271 9.65725 1.30641 2 
46.056 50.271 9.64508 1.01790 2 
47.701 50.271 9.86323 1.14581 2 
49.346 50.271 9.87320 1.26902 2 
50.991 50.271 9.92986 1.02521 2 
52.636 50.271 9.89079 1.13274 2 
54.280 50.271 10.07879 1.03136 2 
55.925 50.271 10.02982 1.15432 2 
57.570 50.271 10.12787 1.21957 2 
59.215 50.271 10.25443 1.06168 2 
60.860 50.271 10.27946 1.12688 2 
62.505 50.271 10.42571 0.93328 2 
64.150 50.271 9.99604 1.05206 2 
65.794 50.271 10.03121 1.06675 2 
67.439 50.271 9.99853 0.77251 2 
69.084 50.271 10.09478 0.82210 2 
70.729 50.271 10.64912 1.11536 2 
72.374 50.271 10.70703 1.14956 2 
74.019 50.271 10.26567 1.27508 2 
75.664 50.271 10.79314 1.15827 2 
77.308 50.271 10.76299 0.83974 2 
78.953 50.271 10.55343 1.14229 2 
80.598 50.271 10.74166 1.15440 2 
82.243 50.271 10.90328 0.97471 2 
83.888 50.271 10.56635 1.04829 2 
85.533 50.271 10.70573 1.05614 2 
87.178 50.271 10.62983 0.50779 2 
88.822 50.271 10.45914 0.84216 2 
90.467 50.271 10.58634 1.08642 2 
92.112 50.271 10.75832 0.79635 2 
93.757 50.271 10.87716 0.92296 2 
95.402 50.271 10.71119 0.92260 2 
97.047 50.271 10.91172 0.75573 2 
98.692 50.271 11.38223 0.83561 2 
100.336 50.271 8.80678 0.64004 2 
101.981 50.271 0.00000 -0.00000 0 
103.626 50.271 0.00000 -0.00000 0 
105.271 50.271 0.00000 -0.00000 0 
106.916 50.271 5.17489 0.58128 2 
108.561 50.271 11.47054 0.29455 2 
110.206 50.271 11.10800 0.55784 2 
111.850 50.271 11.14462 0.39707 2 
113.495 50.271 11.07151 0.48264 2 
115.140 50.271 11.17994 0.50501 2 
116.785 50.271 11.39341 0.52715 2 
118.430 50.271 11.48706 0.58788 2 
120.075 50.271 11.18051 0.35579 2 
121.720 50.271 11.39249 0.14496 2 
123.364 50.271 11.34586 0.10288 2 
125.009 50.271 11.33653 -0.10726 2 
126.654 50.271 11.26644 -0.07311 2 
128.299 50.271 11.16833 0.11430 2 
129.944 50.271 11.29121 -0.02371 2 
131.589 50.271 11.40630 -0.16961 2 
133.234 50.271 11.32639 -0.38309 2 
134.879 50.271 11.12157 -0.48679 2 
136.523 50.271 11.11368 0.07833 2 
138.168 50.271 11.17966 -0.23154 2 
139.813 50.271 10.98007 -0.40000 2 
141.458 50.271 11.07748 -0.55120 2 
143.103 50.271 11.00894 -0.75270 2 
144.748 50.271 10.79110 -0.60982 2 
146.393 50.271 10.84121 -0.38494 2 
148.037 50.271 10.85404 -0.42054 2 
149.682 50.271 10.69241 -0.55634 2 
151.327 50.271 10.92618 -0.80185 2 
152.972 50.271 0.00000 -0.00000 0 
-13.159 48.626 0.00000 -0.00000 0 
-11.514 48.626 9.04997 0.38942 2 
-9.869 48.626 9.20604 0.46954 2 
-8.224 48.626 9.17155 0.36046 2 
-6.579 48.626 9.39018 0.52187 2 
-4.935 48.626 9.17541 0.51387 2 
-3.290 48.626 9.25515 0.56272 2 
-1.645 48.626 9.29087 0.49045 2 
0.000 48.626 9.45829 0.56820 2 
1.645 48.626 9.42528 0.50619 2 
3.290 48.626 0.00000 -0.00000 0 
4.935 48.626 0.00000 -0.00000 0 
6.579 48.626 0.00000 -0.00000 0 
8.224 48.626 0.00000 -0.00000 0 
9.869 48.626 0.00000 -0.00000 0 
11.514 48.626 0.00000 -0.00000 0 
13.159 48.626 0.00000 -0.00000 0 
14.804 48.626 0.00000 -0.00000 0 
16.449 48.626 0.00000 -0.00000 0 
18.093 48.626 0.00000 -0.00000 0 
19.738 48.626 0.00000 -0.00000 0 
21.383 48.626 0.00000 -0.00000 0 
23.028 48.626 5.02508 0.51487 2 
24.673 48.626 10.05017 1.02974 2 
26.318 48.626 9.51827 1.04297 2 
27.963 48.626 9.47718 1.11751 2 
29.607 48.626 9.62790 1.16683 2 
31.252 48.626 9.49312 1.23670 2 
32.897 48.626 9.54716 1.16743 2 
34.542 48.626 9.74304 1.12848 2 
36.187 48.626 9.58509 1.14391 2 
37.832 48.626 9.65070 1.04737 2 
39.477 48.626 9.82983 0.96415 2 
41.121 48.626 9.48912 1.14995 2 
42.766 48.626 9.41501 1.14167 2 
44.411 48.626 9.56571 1.23721 2 
46.056 48.626 9.78177 1.08407 2 
47.701 48.626 9.73958 1.12352 2 
49.346 48.626 9.85224 1.35539 2 
50.991 48.626 9.82874 1.10756 2 
52.636 48.626 9.97049 1.17307 2 
54.280 48.626 9.94861 1.02029 2 
55.925 48.626 9.86929 1.03695 2 
57.570 48.626 10.17354 1.33066 2 
59.215 48.626 10.23989 1.38317 2 
60.860 48.626 10.22990 1.28674 2 
62.505 48.626 10.02332 1.34580 2 
64.150 48.626 10.23708 1.12581 2 
65.794 48.626 10.32473 1.10758 2 
67.439 48.626 10.04628 1.11039 2 
69.084 48.626 10.31147 1.11564 2 
70.729 48.626 10.71663 1.20752 2 
72.374 48.626 10.42869 1.32204 2 
74.019 48.626 10.44964 1.18697 2 
75.664 48.626 10.65587 1.00436 2 
77.308 48.626 10.68916 0.84263 2 
78.953 48.626 10.46922 1.21029 2 
80.598 48.626 10.74364 1.13558 2 
82.243 48.626 10.75401 1.05004 2 
83.888 48.626 10.68337 1.25879 2 
85.533 48.626 10.79077 1.34403 2 
87.178 48.626 10.62583 0.78846 2 
88.822 48.626 10.93345 0.71095 2 
90.467 48.626 10.89318 0.81599 2 
92.112 48.626 10.63176 1.04321 2 
93.757 48.626 11.19443 1.18519 2 
95.402 48.626 10.77816 0.99918 2 
97.047 48.626 10.89464 0.98627 2 
98.692 48.626 11.17910 0.85567 2 
100.336 48.626 12.32344 1.19731 2 
101.981 48.626 0.00000 -0.00000 0 
103.626 48.626 0.00000 -0.00000 0 
105.271 48.626 0.00000 -0.00000 0 
106.916 48.626 4.83414 0.55774 2 
108.561 48.626 11.35847 0.54542 2 
110.206 48.626 11.22392 0.68227 2 
111.850 48.626 11.11496 0.48607 2 
113.495 48.626 11.09449 0.33209 2 
115.140 48.626 11.02385 0.79158 2 
116.785 48.626 11.41140 0.58206 2 
118.430 48.626 11.41073 0.29568 2 
120.075 48.626 11.25054 0.29881 2 
121.720 48.626 11.26696 0.36085 2 
123.364 48.626 11.00838 0.30145 2 
125.009 48.626 11.38839 0.11400 2 
126.654 48.626 11.26439 0.21482 2 
128.299 48.626 11.08359 -0.09842 2 
129.944 48.626 11.14745 -0.08148 2 
131.589 48.626 11.39031 -0.19536 2 
133.234 48.626 11.40221 -0.30712 2 
134.879 48.626 11.18657 -0.23340 2 
136.523 48.626 11.15459 -0.34931 2 
138.168 48.626 11.15551 -0.41622 2 
139.813 48.626 11.17841 -0.49653 2 
141.458 48.626 11.18262 -0.61676 2 
143.103 48.626 11.11137 -0.64873 2 
144.748 48.626 11.19633 -0.65011 2 
146.393 48.626 10.74819 -0.80821 2 
148.037 48.626 10.84884 -0.74774 2 
149.682 48.626 10.64049 -0.52014 2 
151.327 48.626 11.02654 -0.89854 2 
152.972 48.626 0.00000 -0.00000 0 
-13.159 46.981 0.00000 -0.00000 0 
-11.514 46.981 9.48876 0.50808 2 
-9.869 46.981 9.18525 0.50255 2 
-8.224 46.981 9.20410 0.17749 2 
-6.579 46.981 9.25214 0.46577 2 
-4.935 46.981 9.23293 0.44520 2 
-3.290 46.981 9.22400 0.58075 2 
-1.645 46.981 9.13744 0.75485 2 
0.000 46.981 9.30910 0.55908 2 
1.645 46.981 9.64368 0.50950 2 
3.290 46.981 0.00000 -0.00000 0 
4.935 46.981 0.00000 -0.00000 0 
6.579 46.981 0.00000 -0.00000 0 
8.224 46.981 0.00000 -0.00000 0 
9.869 46.981 0.00000 -0.00000 0 
11.514 46.981 0.00000 -0.00000 0 
13.159 46.981 0.00000 -0.00000 0 
14.804 46.981 0.00000 -0.00000 0 
16.449 46.981 0.00000 -0.00000 0 
18.093 46.981 0.00000 -0.00000 0 
19.738 46.981 0.00000 -0.00000 0 
21.383 46.981 0.00000 -0.00000 0 
23.028 46.981 4.83426 0.57129 2 
24.673 46.981 9.66852 1.14259 2 
26.318 46.981 9.49942 1.15345 2 
27.963 46.981 9.50553 1.16360 2 
29.607 46.981 9.63096 1.05573 2 
31.252 46.981 9.30281 1.00592 2 
32.897 46.981 9.60641 1.02532 2 
34.542 46.981 9.67140 1.16953 2 
36.187 46.981 9.54172 1.00617 2 
37.832 46.981 9.46906 1.07990 2 
39.477 46.981 9.76859 1.14036 2 
41.121 46.981 9.41908 1.03060 2 
42.766 46.981 9.52375 1.08554 2 
44.411 46.981 9.68357 1.04216 2 
46.056 46.981 9.98845 1.12830 2 
47.701 46.981 9.73404 1.12312 2 
49.346 46.981 9.92389 1.31455 2 
50.991 46.981 9.86101 1.22394 2 
52.636 46.981 9.93294 1.32369 2 
54.280 46.981 9.93242 1.19215 2 
55.925 46.981 10.08657 0.97133 2 
57.570 46.981 9.83992 1.36796 2 
59.215 46.981 10.13373 1.12026 2 
60.860 46.981 10.05544 1.00951 2 
62.505 46.981 9.96035 1.22688 2 
64.150 46.981 10.22111 1.25518 2 
65.794 46.981 10.33343 1.03308 2 
67.439 46.981 10.18949 1.06927 2 
69.084 46.981 10.28155 1.41275 2 
70.729 46.981 10.43303 1.43340 2 
72.374 46.981 10.29180 1.14948 2 
74.019 46.981 10.66497 1.10626 2 
75.664 46.981 10.35305 1.00982 2 
77.308 46.981 10.48781 0.88492 2 
78.953 46.981 10.51354 1.25028 2 
80.598 46.981 10.66232 0.92401 2 
82.243 46.981 10.82834 1.13391 2 
83.888 46.981 10.63610 1.43342 2 
85.533 46.981 10.87965 1.08953 2 
87.178 46.981 10.80703 1.00380 2 
88.822 46.981 11.03335 1.27440 2 
90.467 46.981 10.97483 1.04621 2 
92.112 46.981 10.72412 1.07152 2 
93.757 46.981 10.92552 1.16640 2 
95.402 46.981 10.94416 0.97652 2 
97.047 46.981 11.14651 1.03019 2 
98.692 46.981 11.09841 0.81664 2 
100.336 46.981 11.16984 1.02091 2 
101.981 46.981 0.00000 -0.00000 0 
103.626 46.981 0.00000 -0.00000 0 
105.271 46.981 0.00000 -0.00000 0 
106.916 46.981 4.54619 0.38205 2 
108.561 46.981 11.84768 0.62759 2 
110.206 46.981 11.61396 0.76960 2 
111.850 46.981 11.06960 0.74661 2 
113.495 46.981 10.96857 0.48268 2 
115.140 46.981 11.15850 0.65106 2 
116.785 46.981 11.30036 0.52432 2 
118.430 46.981 11.29469 0.28384 2 
120.075 46.981 11.49295 0.30413 2 
121.720 46.981 11.17396 0.56244 2 
123.364 46.981 11.09132 0.42500 2 
125.009 46.981 11.40225 0.24127 2 
126.654 46.981 11.37796 0.21766 2 
128.299 46.981 11.23902 -0.21060 2 
129.944 46.981 11.25586 0.12932 2 
131.589 46.981 11.30003 -0.15269 2 
133.234 46.981 11.55920 -0.29099 2 
134.879 46.981 11.37983 -0.11442 2 
136.523 46.981 11.18899 -0.41933 2 
138.168 46.981 11.12992 -0.42233 2 
139.813 46.981 11.18573 -0.33602 2 
141.458 46.981 11.23379 -0.59901 2 
143.103 46.981 11.36790 -0.70210 2 
144.748 46.981 11.20878 -0.60702 2 
146.393 46.981 10.96338 -0.76396 2 
148.037 46.981 10.96548 -0.73794 2 
149.682 46.981 10.58386 -0.98733 2 
151.327 46.981 11.12690 -0.99523 2 
152.972 46.981 0.00000 -0.00000 0 
-13.159 45.336 0.00000 -0.00000 0 
-11.514 45.336 9.52135 0.45710 2 
-9.869 45.336 9.13740 0.63382 2 
-8.224 45.336 9.17613 0.43565 2 
-6.579 45.336 9.11410 0.40967 2 
-4.935 45.336 9.17579 0.44870 2 
-3.290 45.336 9.16827 0.48527 2 
-1.645 45.336 9.18159 0.68193 2 
0.000 45.336 9.30508 0.55228 2 
1.645 45.336 9.80160 0.77919 2 
3.290 45.336 2.73808 0.30059 2 
4.935 45.336 0.00000 -0.00000 0 
6.579 45.336 0.00000 -0.00000 0 
8.224 45.336 0.00000 -0.00000 0 
9.869 45.336 0.00000 -0.00000 0 
11.514 45.336 0.00000 -0.00000 0 
13.159 45.336 0.00000 -0.00000 0 
14.804 45.336 0.00000 -0.00000 0 
16.449 45.336 0.00000 -0.00000 0 
18.093 45.336 0.00000 -0.00000 0 
19.738 45.336 0.00000 -0.00000 0 
21.383 45.336 0.00000 -0.00000 0 
23.028 45.336 5.12292 0.47969 2 
24.673 45.336 10.24583 0.95937 2 
26.318 45.336 9.30417 1.06254 2 
27.963 45.336 9.56068 1.00602 2 
29.607 45.336 9.49193 1.09359 2 
31.252 45.336 9.36048 0.97656 2 
32.897 45.336 9.61098 1.08479 2 
34.542 45.336 9.57930 1.21858 2 
36.187 45.336 9.46264 1.17845 2 
37.832 45.336 9.46159 1.36280 2 
39.477 45.336 9.54683 1.27141 2 
41.121 45.336 9.66369 1.15713 2 
42.766 45.336 9.72554 1.24089 2 
44.411 45.336 9.63389 1.22273 2 
46.056 45.336 9.89849 1.01104 2 
47.701 45.336 10.03835 1.09003 2 
49.346 45.336 9.75638 1.39048 2 
50.991 45.336 9.85476 1.16321 2 
52.636 45.336 9.82773 1.43369 2 
54.280 45.336 9.88186 1.45156 2 
55.925 45.336 9.95874 0.98239 2 
57.570 45.336 9.84945 1.14488 2 
59.215 45.336 9.96083 1.18503 2 
60.860 45.336 10.20284 1.16878 2 
62.505 45.336 10.20201 1.23222 2 
64.150 45.336 10.52642 1.39437 2 
65.794 45.336 10.23950 1.27481 2 
67.439 45.336 10.32647 0.89733 2 
69.084 45.336 10.22585 0.94161 2 
70.729 45.336 10.11595 1.30883 2 
72.374 45.336 10.28507 1.13769 2 
74.019 45.336 10.47273 1.25273 2 
75.664 45.336 10.46609 1.46656 2 
77.308 45.336 10.49441 0.96387 2 
78.953 45.336 10.68404 1.13020 2 
80.598 45.336 10.78876 1.08215 2 
82.243 45.336 10.77817 1.21061 2 
83.888 45.336 10.53330 1.20606 2 
85.533 45.336 10.73601 1.06271 2 
87.178 45.336 10.80248 0.92196 2 
88.822 45.336 10.87381 1.03841 2 
90.467 45.336 10.96978 0.88371 2 
92.112 45.336 10.97280 0.88447 2 
93.757 45.336 10.80686 1.14181 2 
95.402 45.336 10.90638 1.29792 2 
97.047 45.336 11.10023 0.95163 2 
98.692 45.336 11.08971 0.94478 2 
100.336 45.336 10.31337 0.93538 2 
101.981 45.336 5.15668 0.46769 2 
103.626 45.336 0.00000 -0.00000 0 
105.271 45.336 0.00000 -0.00000 0 
106.916 45.336 4.78980 0.30717 2 
108.561 45.336 9.57960 0.61435 2 
110.206 45.336 11.55841 0.64414 2 
111.850 45.336 11.27459 0.61803 2 
113.495 45.336 11.39873 0.48536 2 
115.140 45.336 11.37600 0.45900 2 
116.785 45.336 11.24272 0.43576 2 
118.430 45.336 11.33188 0.24577 2 
120.075 45.336 11.47206 0.06772 2 
121.720 45.336 11.08811 0.37896 2 
123.364 45.336 11.43520 0.25877 2 
125.009 45.336 11.37975 0.12124 2 
126.654 45.336 11.27513 0.36321 2 
128.299 45.336 11.58011 -0.07251 2 
129.944 45.336 11.69024 0.01181 2 
131.589 45.336 11.46222 -0.07053 2 
133.234 45.336 11.56753 0.01848 2 
134.879 45.336 11.23457 0.04177 2 
136.523 45.336 11.44745 -0.34678 2 
138.168 45.336 11.28052 -0.43310 2 
139.813 45.336 11.16172 -0.57864 2 
141.458 45.336 11.29692 -0.61636 2 
143.103 45.336 11.38481 -0.80331 2 
144.748 45.336 11.24864 -0.77833 2 
146.393 45.336 11.23691 -0.99855 2 
148.037 45.336 11.21469 -0.81600 2 
149.682 45.336 10.74022 -0.95738 2 
151.327 45.336 11.44979 -0.49246 2 
152.972 45.336 0.00000 -0.00000 0 
-13.159 43.692 0.00000 -0.00000 0 
-11.514 43.692 9.55394 0.40612 2 
-9.869 43.692 9.16065 0.30698 2 
-8.224 43.692 9.20629 0.66960 2 
-6.579 43.692 9.05199 0.59105 2 
-4.935 43.692 9.31835 0.32035 2 
-3.290 43.692 9.21088 0.49598 2 
-1.645 43.692 9.12698 0.45058 2 
0.000 43.692 9.26289 0.44585 2 
1.645 43.692 9.56723 0.69766 2 
3.290 43.692 5.47615 0.60119 2 
4.935 43.692 0.00000 -0.00000 0 
6.579 43.692 0.00000 -0.00000 0 
8.224 43.692 0.00000 -0.00000 0 
9.869 43.692 0.00000 -0.00000 0 
11.514 43.692 0.00000 -0.00000 0 
13.159 43.692 0.00000 -0.00000 0 
14.804 43.692 0.00000 -0.00000 0 
16.449 43.692 0.00000 -0.00000 0 
18.093 43.692 0.00000 -0.00000 0 
19.738 43.692 0.00000 -0.00000 0 
21.383 43.692 0.00000 -0.00000 0 
23.028 43.692 5.23834 0.42214 2 
24.673 43.692 10.47667 0.84428 2 
26.318 43.692 9.13239 0.86515 2 
27.963 43.692 9.53194 0.94599 2 
29.607 43.692 9.52312 1.03315 2 
31.252 43.692 9.44561 1.11482 2 
32.897 43.692 9.42315 1.15085 2 
34.542 43.692 9.45040 1.28584 2 
36.187 43.692 9.53508 1.09414 2 
37.832 43.692 9.58786 1.19396 2 
39.477 43.692 9.49973 1.27057 2 
41.121 43.692 9.72083 1.15304 2 
42.766 43.692 9.80456 1.04170 2 
44.411 43.692 9.64536 1.28972 2 
46.056 43.692 9.80684 1.15574 2 
47.701 43.692 9.88173 1.00728 2 
49.346 43.692 9.78998 1.46904 2 
50.991 43.692 9.82643 1.14281 2 
52.636 43.692 9.74239 1.32897 2 
54.280 43.692 10.12976 1.32692 2 
55.925 43.692 10.03432 1.00697 2 
57.570 43.692 10.00116 1.43392 2 
59.215 43.692 10.18514 1.55796 2 
60.860 43.692 10.26265 1.15283 2 
62.505 43.692 10.25108 1.42152 2 
64.150 43.692 10.54465 1.39047 2 
65.794 43.692 10.29519 1.37050 2 
67.439 43.692 10.51769 1.23503 2 
69.084 43.692 10.38219 0.98229 2 
70.729 43.692 10.29762 1.24858 2 
72.374 43.692 10.46651 1.27744 2 
74.019 43.692 10.32853 1.44974 2 
75.664 43.692 10.59555 1.37401 2 
77.308 43.692 10.60707 1.08822 2 
78.953 43.692 10.50489 0.97748 2 
80.598 43.692 10.80841 1.13044 2 
82.243 43.692 10.83814 1.07177 2 
83.888 43.692 10.63124 1.18722 2 
85.533 43.692 10.65973 1.19372 2 
87.178 43.692 10.77162 1.19949 2 
88.822 43.692 10.90071 1.17623 2 
90.467 43.692 10.77948 0.80685 2 
92.112 43.692 10.99012 0.97618 2 
93.757 43.692 10.96901 1.09923 2 
95.402 43.692 10.95299 1.34609 2 
97.047 43.692 11.26299 1.12397 2 
98.692 43.692 11.37356 0.93952 2 
100.336 43.692 11.48964 0.55091 2 
101.981 43.692 5.74482 0.27545 2 
103.626 43.692 0.00000 -0.00000 0 
105.271 43.692 0.00000 -0.00000 0 
106.916 43.692 5.10076 0.38030 2 
108.561 43.692 10.20152 0.76061 2 
110.206 43.692 11.13736 0.70541 2 
111.850 43.692 11.35922 0.60520 2 
113.495 43.692 11.39587 0.59911 2 
115.140 43.692 11.10672 0.26446 2 
116.785 43.692 11.07086 0.54340 2 
118.430 43.692 11.28655 0.58903 2 
120.075 43.692 11.25363 0.48315 2 
121.720 43.692 11.25683 0.22590 2 
123.364 43.692 11.35369 0.26217 2 
125.009 43.692 11.49784 -0.09400 2 
126.654 43.692 11.30380 0.13291 2 
128.299 43.692 11.69854 -0.05516 2 
129.944 43.692 11.50788 -0.01162 2 
131.589 43.692 11.38712 0.06199 2 
133.234 43.692 11.53451 -0.14316 2 
134.879 43.692 11.24825 -0.27112 2 
136.523 43.692 11.65375 -0.44491 2 
138.168 43.692 11.20198 -0.33748 2 
139.813 43.692 11.29211 -0.61692 2 
141.458 43.692 11.55348 -0.41530 2 
143.103 43.692 11.51201 -0.66516 2 
144.748 43.692 11.39990 -0.94528 2 
146.393 43.692 11.09161 -0.90235 2 
148.037 43.692 11.32797 -0.97859 2 
149.682 43.692 10.90438 -1.07584 2 
151.327 43.692 11.41243 -0.72837 2 
152.972 43.692 0.00000 -0.00000 0 
-13.159 42.047 0.00000 -0.00000 0 
-11.514 42.047 9.58653 0.35515 2 
-9.869 42.047 9.13707 0.34396 2 
-8.224 42.047 9.14835 0.54885 2 
-6.579 42.047 9.04298 0.61795 2 
-4.935 42.047 9.31039 0.49822 2 
-3.290 42.047 9.07232 0.58605 2 
-1.645 42.047 9.14864 0.68894 2 
0.000 42.047 9.04766 0.76507 2 
1.645 42.047 9.33286 0.61613 2 
3.290 42.047 9.45214 0.86085 2 
4.935 42.047 0.00000 -0.00000 0 
6.579 42.047 0.00000 -0.00000 0 
8.224 42.047 0.00000 -0.00000 0 
9.869 42.047 0.00000 -0.00000 0 
11.514 42.047 0.00000 -0.00000 0 
13.159 42.047 0.00000 -0.00000 0 
14.804 42.047 0.00000 -0.00000 0 
16.449 42.047 0.00000 -0.00000 0 
18.093 42.047 0.00000 -0.00000 0 
19.738 42.047 0.00000 -0.00000 0 
21.383 42.047 0.00000 -0.00000 0 
23.028 42.047 4.95953 0.34048 2 
24.673 42.047 9.91905 0.68096 2 
26.318 42.047 9.01707 0.90539 2 
27.963 42.047 9.41396 0.95052 2 
29.607 42.047 9.51772 1.05207 2 
31.252 42.047 9.40033 1.22171 2 
32.897 42.047 9.41720 1.15596 2 
34.542 42.047 9.53070 1.18090 2 
36.187 42.047 9.64079 0.97327 2 
37.832 42.047 9.47644 0.96607 2 
39.477 42.047 9.47383 1.14639 2 
41.121 42.047 9.67877 1.28035 2 
42.766 42.047 9.53226 1.33237 2 
44.411 42.047 9.38384 1.33060 2 
46.056 42.047 9.60837 1.38209 2 
47.701 42.047 9.91824 1.19380 2 
49.346 42.047 10.07447 1.27007 2 
50.991 42.047 9.96560 1.16155 2 
52.636 42.047 9.97618 1.35026 2 
54.280 42.047 10.15107 1.29238 2 
55.925 42.047 10.00663 0.99265 2 
57.570 42.047 9.78962 1.11478 2 
59.215 42.047 9.97054 1.27297 2 
60.860 42.047 10.31782 1.05763 2 
62.505 42.047 10.27014 1.31077 2 
64.150 42.047 10.27841 1.25706 2 
65.794 42.047 10.18193 1.17850 2 
67.439 42.047 10.39402 1.38286 2 
69.084 42.047 10.42871 1.26098 2 
70.729 42.047 10.46672 1.42314 2 
72.374 42.047 10.65590 1.43009 2 
74.019 42.047 10.56006 1.08016 2 
75.664 42.047 10.34677 1.02431 2 
77.308 42.047 10.53219 1.09720 2 
78.953 42.047 10.60394 1.16019 2 
80.598 42.047 10.65698 1.15615 2 
82.243 42.047 10.77844 0.91459 2 
83.888 42.047 10.54117 1.32584 2 
85.533 42.047 10.99141 1.34484 2 
87.178 42.047 11.05042 1.13921 2 
88.822 42.047 10.71529 1.17163 2 
90.467 42.047 10.79745 1.19352 2 
92.112 42.047 10.97086 0.90942 2 
93.757 42.047 11.13117 1.05665 2 
95.402 42.047 11.00328 1.31896 2 
97.047 42.047 11.06148 1.06719 2 
98.692 42.047 11.37991 0.82717 2 
100.336 42.047 11.71468 1.34098 2 
101.981 42.047 3.54051 -0.16678 2 
103.626 42.047 0.00000 -0.00000 0 
105.271 42.047 0.00000 -0.00000 0 
106.916 42.047 5.08679 0.13187 2 
108.561 42.047 10.17359 0.26374 2 
110.206 42.047 11.28811 0.68197 2 
111.850 42.047 11.42762 0.81162 2 
113.495 42.047 11.34448 0.88145 2 
115.140 42.047 11.42064 0.41952 2 
116.785 42.047 11.23449 0.47949 2 
118.430 42.047 11.37188 0.75255 2 
120.075 42.047 11.33569 0.51627 2 
121.720 42.047 11.49040 0.42260 2 
123.364 42.047 11.42333 0.47817 2 
125.009 42.047 11.40782 0.22046 2 
126.654 42.047 11.36697 0.01184 2 
128.299 42.047 11.39630 -0.12228 2 
129.944 42.047 11.29886 -0.10495 2 
131.589 42.047 11.24789 -0.31552 2 
133.234 42.047 11.72841 -0.26338 2 
134.879 42.047 11.79400 -0.48602 2 
136.523 42.047 11.58523 -0.38458 2 
138.168 42.047 11.41589 -0.63482 2 
139.813 42.047 11.59310 -0.91389 2 
141.458 42.047 11.37066 -0.69507 2 
143.103 42.047 11.50011 -0.61163 2 
144.748 42.047 11.22743 -0.99572 2 
146.393 42.047 11.22404 -1.12882 2 
148.037 42.047 11.22913 -1.04090 2 
149.682 42.047 11.12440 -1.17831 2 
151.327 42.047 11.21575 -0.97733 2 
152.972 42.047 0.00000 -0.00000 0 
-13.159 40.402 0.00000 -0.00000 0 
-11.514 40.402 9.61912 0.30417 2 
-9.869 40.402 9.11469 0.45654 2 
-8.224 40.402 9.16409 0.32659 2 
-6.579 40.402 8.87834 0.33786 2 
-4.935 40.402 9.03145 0.61152 2 
-3.290 40.402 9.08760 0.57108 2 
-1.645 40.402 9.05244 0.62440 2 
0.000 40.402 9.14591 0.76700 2 
1.645 40.402 9.01916 0.49366 2 
3.290 40.402 9.30592 0.81767 2 
4.935 40.402 0.00000 -0.00000 0 
6.579 40.402 0.00000 -0.00000 0 
8.224 40.402 0.00000 -0.00000 0 
9.869 40.402 0.00000 -0.00000 0 
11.514 40.402 0.00000 -0.00000 0 
13.159 40.402 0.00000 -0.00000 0 
14.804 40.402 0.00000 -0.00000 0 
16.449 40.402 0.00000 -0.00000 0 
18.093 40.402 0.00000 -0.00000 0 
19.738 40.402 0.00000 -0.00000 0 
21.383 40.402 0.00000 -0.00000 0 
23.028 40.402 1.07884 1.61837 2 
24.673 40.402 10.51544 1.04538 2 
26.318 40.402 8.84765 1.09738 2 
27.963 40.402 9.29543 1.08195 2 
29.607 40.402 9.53776 0.96900 2 
31.252 40.402 9.51089 1.05623 2 
32.897 40.402 9.39481 1.27029 2 
34.542 40.402 9.51517 1.17975 2 
36.187 40.402 9.51006 1.27189 2 
37.832 40.402 9.34542 1.28515 2 
39.477 40.402 9.49684 1.30844 2 
41.121 40.402 9.71417 1.46207 2 
42.766 40.402 9.47597 1.61052 2 
44.411 40.402 9.54022 1.44142 2 
46.056 40.402 9.79826 1.34185 2 
47.701 40.402 9.87595 1.30932 2 
49.346 40.402 10.08735 1.34559 2 
50.991 40.402 9.89143 1.24382 2 
52.636 40.402 9.83817 1.27168 2 
54.280 40.402 9.73816 1.30728 2 
55.925 40.402 9.88280 1.49094 2 
57.570 40.402 10.09051 1.22776 2 
59.215 40.402 9.85597 1.33370 2 
60.860 40.402 10.26172 1.25310 2 
62.505 40.402 10.39319 1.26036 2 
64.150 40.402 10.19169 1.02155 2 
65.794 40.402 10.03416 1.10228 2 
67.439 40.402 10.30793 1.32526 2 
69.084 40.402 10.37656 1.13808 2 
70.729 40.402 10.61300 1.42285 2 
72.374 40.402 10.50428 1.39410 2 
74.019 40.402 10.66401 1.40693 2 
75.664 40.402 10.59284 1.41430 2 
77.308 40.402 10.72359 1.32495 2 
78.953 40.402 10.54973 1.35865 2 
80.598 40.402 10.50556 1.18187 2 
82.243 40.402 10.73013 0.97813 2 
83.888 40.402 10.62888 1.18861 2 
85.533 40.402 11.02614 1.26662 2 