TITLE = "B00004"
VARIABLES = "X [mm]", "Y [mm]", "Vx [m/s]", "Vy [m/s]", "Flag"
ZONE T="Frame 1", I=102, J=77, F=POINT
-13.159 53.561 0.00000 -0.00000 0 
-11.514 53.561 9.77406 0.05445 2 
-9.869 53.561 9.38524 -0.02701 2 
-8.224 53.561 9.39520 0.00831 2 
-6.579 53.561 9.49276 0.06734 2 
-4.935 53.561 9.40415 0.02518 2 
-3.290 53.561 9.44384 0.14031 2 
-1.645 53.561 9.48353 0.25544 2 
0.000 53.561 9.44503 0.29387 2 
1.645 53.561 9.37376 -0.08905 2 
3.290 53.561 0.00000 -0.00000 0 
4.935 53.561 0.00000 -0.00000 0 
6.579 53.561 0.00000 -0.00000 0 
8.224 53.561 0.00000 -0.00000 0 
9.869 53.561 0.00000 -0.00000 0 
11.514 53.561 0.00000 -0.00000 0 
13.159 53.561 0.00000 -0.00000 0 
14.804 53.561 0.00000 -0.00000 0 
16.449 53.561 0.00000 -0.00000 0 
18.093 53.561 0.00000 -0.00000 0 
19.738 53.561 0.00000 -0.00000 0 
21.383 53.561 0.00000 -0.00000 0 
23.028 53.561 0.08994 -0.29219 2 
24.673 53.561 10.56877 0.38258 2 
26.318 53.561 9.48226 0.44705 2 
27.963 53.561 9.46266 0.28966 2 
29.607 53.561 9.49648 0.33302 2 
31.252 53.561 9.53031 0.37638 2 
32.897 53.561 9.56413 0.41975 2 
34.542 53.561 9.59795 0.46311 2 
36.187 53.561 9.70327 0.58635 2 
37.832 53.561 9.72320 0.57238 2 
39.477 53.561 9.74312 0.55841 2 
41.121 53.561 9.76305 0.54445 2 
42.766 53.561 9.78298 0.53048 2 
44.411 53.561 9.80291 0.51651 2 
46.056 53.561 9.82284 0.50254 2 
47.701 53.561 9.84276 0.48858 2 
49.346 53.561 9.73138 0.52035 2 
50.991 53.561 9.87630 0.41387 2 
52.636 53.561 9.98791 0.34966 2 
54.280 53.561 10.02462 0.36970 2 
55.925 53.561 10.06133 0.38975 2 
57.570 53.561 10.09804 0.40980 2 
59.215 53.561 10.13476 0.42985 2 
60.860 53.561 10.17147 0.44989 2 
62.505 53.561 10.20818 0.46994 2 
64.150 53.561 10.24489 0.48999 2 
65.794 53.561 10.28160 0.51004 2 
67.439 53.561 10.31831 0.53009 2 
69.084 53.561 10.40040 0.47120 2 
70.729 53.561 10.44375 0.45072 2 
72.374 53.561 10.48710 0.43024 2 
74.019 53.561 10.53045 0.40976 2 
75.664 53.561 10.57380 0.38928 2 
77.308 53.561 10.61715 0.36880 2 
78.953 53.561 10.66050 0.34832 2 
80.598 53.561 10.70385 0.32784 2 
82.243 53.561 10.74720 0.30736 2 
83.888 53.561 10.80790 0.30346 2 
85.533 53.561 10.69475 0.22678 2 
87.178 53.561 10.76476 0.21501 2 
88.822 53.561 10.83477 0.20324 2 
90.467 53.561 10.90477 0.19147 2 
92.112 53.561 10.95177 0.24996 2 
93.757 53.561 10.72879 0.06068 2 
95.402 53.561 10.57305 0.05042 2 
97.047 53.561 10.41731 0.04015 2 
98.692 53.561 10.95614 0.01660 2 
100.336 53.561 5.47807 0.00830 2 
101.981 53.561 0.00000 -0.00000 0 
103.626 53.561 0.00000 -0.00000 0 
105.271 53.561 0.00000 -0.00000 0 
106.916 53.561 5.79574 -0.01597 2 
108.561 53.561 11.02102 0.25678 2 
110.206 53.561 10.92183 0.31261 2 
111.850 53.561 11.10985 0.28365 2 
113.495 53.561 11.16956 0.30753 2 
115.140 53.561 10.91199 0.22151 2 
116.785 53.561 10.90609 0.26141 2 
118.430 53.561 10.82226 0.30083 2 
120.075 53.561 11.19764 0.24043 2 
121.720 53.561 11.05840 0.20649 2 
123.364 53.561 11.08022 0.10099 2 
125.009 53.561 11.10584 -0.11189 2 
126.654 53.561 11.17398 -0.19137 2 
128.299 53.561 11.06824 -0.20160 2 
129.944 53.561 10.98395 -0.26612 2 
131.589 53.561 10.65771 -0.04464 2 
133.234 53.561 10.89472 0.08046 2 
134.879 53.561 10.87109 0.11169 2 
136.523 53.561 10.93182 -0.05134 2 
138.168 53.561 10.55646 -0.26138 2 
139.813 53.561 10.55935 -0.17805 2 
141.458 53.561 10.47780 -0.20117 2 
143.103 53.561 10.40986 -0.15951 2 
144.748 53.561 10.58709 -0.20064 2 
146.393 53.561 10.72847 -0.33122 2 
148.037 53.561 10.82759 -0.28420 2 
149.682 53.561 10.79670 -0.26507 2 
151.327 53.561 0.00000 -0.00000 0 
152.972 53.561 0.00000 -0.00000 0 
-13.159 51.916 0.00000 -0.00000 0 
-11.514 51.916 9.70578 0.62078 2 
-9.869 51.916 9.16038 0.57016 2 
-8.224 51.916 9.31623 0.62345 2 
-6.579 51.916 9.29756 0.56468 2 
-4.935 51.916 9.34064 0.61934 2 
-3.290 51.916 9.39696 0.50596 2 
-1.645 51.916 9.20717 0.71404 2 
0.000 51.916 9.35091 0.84666 2 
1.645 51.916 9.39227 0.70428 2 
3.290 51.916 0.00000 -0.00000 0 
4.935 51.916 0.00000 -0.00000 0 
6.579 51.916 0.00000 -0.00000 0 
8.224 51.916 0.00000 -0.00000 0 
9.869 51.916 0.00000 -0.00000 0 
11.514 51.916 0.00000 -0.00000 0 
13.159 51.916 0.00000 -0.00000 0 
14.804 51.916 0.00000 -0.00000 0 
16.449 51.916 0.00000 -0.00000 0 
18.093 51.916 0.00000 -0.00000 0 
19.738 51.916 0.00000 -0.00000 0 
21.383 51.916 0.00000 -0.00000 0 
23.028 51.916 5.26488 0.15595 2 
24.673 51.916 10.52976 0.31191 2 
26.318 51.916 9.25751 1.24059 2 
27.963 51.916 9.37115 1.20116 2 
29.607 51.916 9.39020 1.13341 2 
31.252 51.916 9.51627 0.98992 2 
32.897 51.916 9.55370 1.15038 2 
34.542 51.916 9.47532 1.11983 2 
36.187 51.916 9.65906 1.22190 2 
37.832 51.916 9.66374 1.17616 2 
39.477 51.916 9.86222 1.28369 2 
41.121 51.916 9.97745 1.28591 2 
42.766 51.916 9.67273 1.18510 2 
44.411 51.916 9.62687 1.32859 2 
46.056 51.916 9.64258 1.36173 2 
47.701 51.916 9.79525 1.06938 2 
49.346 51.916 9.71439 1.37344 2 
50.991 51.916 9.98041 1.38260 2 
52.636 51.916 9.85678 1.09042 2 
54.280 51.916 10.02545 1.47371 2 
55.925 51.916 10.12965 1.39701 2 
57.570 51.916 10.18329 1.17495 2 
59.215 51.916 10.11464 1.19324 2 
60.860 51.916 10.25365 1.31461 2 
62.505 51.916 10.07131 1.26052 2 
64.150 51.916 10.41123 1.13922 2 
65.794 51.916 10.41631 1.34298 2 
67.439 51.916 10.30707 1.15051 2 
69.084 51.916 10.35264 1.43836 2 
70.729 51.916 10.52513 1.18334 2 
72.374 51.916 10.56495 1.00821 2 
74.019 51.916 10.63624 0.98037 2 
75.664 51.916 10.70752 0.95253 2 
77.308 51.916 10.69255 1.08034 2 
78.953 51.916 10.67758 1.20815 2 
80.598 51.916 10.54194 1.18986 2 
82.243 51.916 10.58547 1.10473 2 
83.888 51.916 10.55718 0.85524 2 
85.533 51.916 10.70533 1.03379 2 
87.178 51.916 11.06359 1.08771 2 
88.822 51.916 11.03935 1.14299 2 
90.467 51.916 10.89444 1.26663 2 
92.112 51.916 10.73167 1.18548 2 
93.757 51.916 10.87933 1.32150 2 
95.402 51.916 10.86579 1.14463 2 
97.047 51.916 10.96065 0.90143 2 
98.692 51.916 11.25947 0.21790 2 
100.336 51.916 5.56144 0.10262 2 
101.981 51.916 0.00000 -0.00000 0 
103.626 51.916 0.00000 -0.00000 0 
105.271 51.916 0.00000 -0.00000 0 
106.916 51.916 5.57755 0.43517 2 
108.561 51.916 11.15511 0.87033 2 
110.206 51.916 10.93020 0.72510 2 
111.850 51.916 10.94971 0.42732 2 
113.495 51.916 10.99307 0.51565 2 
115.140 51.916 11.11600 0.32841 2 
116.785 51.916 11.08653 0.26114 2 
118.430 51.916 11.02277 0.41301 2 
120.075 51.916 11.11367 0.29222 2 
121.720 51.916 10.84303 0.25240 2 
123.364 51.916 10.71857 0.01137 2 
125.009 51.916 10.85746 -0.13989 2 
126.654 51.916 11.00083 -0.07809 2 
128.299 51.916 10.78419 0.16733 2 
129.944 51.916 11.12543 -0.30527 2 
131.589 51.916 10.83141 -0.11506 2 
133.234 51.916 11.07414 -0.16365 2 
134.879 51.916 11.05159 -0.10557 2 
136.523 51.916 10.96347 -0.08215 2 
138.168 51.916 10.63640 -0.43983 2 
139.813 51.916 10.58775 -0.26020 2 
141.458 51.916 10.72908 -0.33041 2 
143.103 51.916 10.40216 -0.35519 2 
144.748 51.916 10.67338 -0.32879 2 
146.393 51.916 10.60725 -0.42484 2 
148.037 51.916 10.67035 -0.36126 2 
149.682 51.916 10.54123 -0.51012 2 
151.327 51.916 0.00000 -0.00000 0 
152.972 51.916 0.00000 -0.00000 0 
-13.159 50.271 0.00000 -0.00000 0 
-11.514 50.271 9.52798 0.28268 2 
-9.869 50.271 9.01586 0.15872 2 
-8.224 50.271 9.19047 0.28476 2 
-6.579 50.271 9.09568 0.44215 2 
-4.935 50.271 9.10171 0.61350 2 
-3.290 50.271 9.35553 0.46484 2 
-1.645 50.271 9.18797 0.56381 2 
0.000 50.271 9.34225 0.54890 2 
1.645 50.271 9.48294 0.88388 2 
3.290 50.271 0.00000 -0.00000 0 
4.935 50.271 0.00000 -0.00000 0 
6.579 50.271 0.00000 -0.00000 0 
8.224 50.271 0.00000 -0.00000 0 
9.869 50.271 0.00000 -0.00000 0 
11.514 50.271 0.00000 -0.00000 0 
13.159 50.271 0.00000 -0.00000 0 
14.804 50.271 0.00000 -0.00000 0 
16.449 50.271 0.00000 -0.00000 0 
18.093 50.271 0.00000 -0.00000 0 
19.738 50.271 0.00000 -0.00000 0 
21.383 50.271 0.00000 -0.00000 0 
23.028 50.271 5.35586 0.45471 2 
24.673 50.271 10.71172 0.90942 2 
26.318 50.271 9.03127 1.06531 2 
27.963 50.271 9.39006 0.68573 2 
29.607 50.271 9.57097 0.85116 2 
31.252 50.271 9.64753 0.98734 2 
32.897 50.271 9.67172 1.08542 2 
34.542 50.271 9.59114 1.08474 2 
36.187 50.271 9.64191 0.91056 2 
37.832 50.271 9.65399 0.80210 2 
39.477 50.271 9.77788 1.17512 2 
41.121 50.271 9.67429 1.17621 2 
42.766 50.271 9.70438 1.06300 2 
44.411 50.271 9.72833 1.12260 2 
46.056 50.271 9.78198 1.00511 2 
47.701 50.271 9.88406 0.98450 2 
49.346 50.271 9.90426 0.94248 2 
50.991 50.271 9.91175 1.28161 2 
52.636 50.271 10.03322 1.10744 2 
54.280 50.271 10.13574 1.25604 2 
55.925 50.271 10.01108 1.05572 2 
57.570 50.271 9.86572 1.06634 2 
59.215 50.271 9.94259 1.20811 2 
60.860 50.271 10.19832 1.09785 2 
62.505 50.271 10.09653 1.29014 2 
64.150 50.271 10.06433 1.16129 2 
65.794 50.271 10.07954 1.23686 2 
67.439 50.271 10.34770 0.91940 2 
69.084 50.271 10.32888 0.97444 2 
70.729 50.271 10.49493 0.68068 2 
72.374 50.271 10.46619 1.10234 2 
74.019 50.271 10.45893 1.05683 2 
75.664 50.271 10.67602 1.25670 2 
77.308 50.271 10.70272 1.11008 2 
78.953 50.271 10.56428 1.09634 2 
80.598 50.271 10.68992 0.87561 2 
82.243 50.271 10.84234 0.80439 2 
83.888 50.271 10.94163 0.98161 2 
85.533 50.271 10.58059 0.92361 2 
87.178 50.271 10.85465 0.81759 2 
88.822 50.271 10.89870 0.80513 2 
90.467 50.271 10.61372 0.71627 2 
92.112 50.271 10.97601 0.91192 2 
93.757 50.271 10.64791 0.70926 2 
95.402 50.271 10.83922 0.69805 2 
97.047 50.271 11.06629 0.64360 2 
98.692 50.271 11.56280 0.41920 2 
100.336 50.271 8.67739 0.52293 2 
101.981 50.271 0.00000 -0.00000 0 
103.626 50.271 0.00000 -0.00000 0 
105.271 50.271 0.00000 -0.00000 0 
106.916 50.271 5.75310 0.26380 2 
108.561 50.271 11.50620 0.52759 2 
110.206 50.271 11.02642 0.41524 2 
111.850 50.271 11.13842 0.44648 2 
113.495 50.271 11.05844 0.33476 2 
115.140 50.271 10.96748 0.31286 2 
116.785 50.271 10.98566 0.19367 2 
118.430 50.271 11.00384 0.07447 2 
120.075 50.271 11.15111 0.24921 2 
121.720 50.271 11.06305 0.14554 2 
123.364 50.271 10.91434 -0.07835 2 
125.009 50.271 10.92103 -0.03838 2 
126.654 50.271 10.97384 0.01038 2 
128.299 50.271 11.02387 0.12557 2 
129.944 50.271 10.93166 0.04821 2 
131.589 50.271 10.75161 -0.09137 2 
133.234 50.271 10.83261 -0.11240 2 
134.879 50.271 10.69820 -0.06823 2 
136.523 50.271 10.77619 -0.09789 2 
138.168 50.271 10.87030 -0.42235 2 
139.813 50.271 10.89856 -0.30716 2 
141.458 50.271 10.66491 -0.19246 2 
143.103 50.271 10.53167 -0.29122 2 
144.748 50.271 10.54229 -0.46138 2 
146.393 50.271 10.71773 -0.18837 2 
148.037 50.271 10.45262 -0.29622 2 
149.682 50.271 10.38460 -0.46792 2 
151.327 50.271 11.00538 -0.24446 2 
152.972 50.271 0.00000 -0.00000 0 
-13.159 48.626 0.00000 -0.00000 0 
-11.514 48.626 9.35209 0.32326 2 
-9.869 48.626 9.07889 0.34337 2 
-8.224 48.626 9.28636 0.42068 2 
-6.579 48.626 9.29149 0.49007 2 
-4.935 48.626 9.27024 0.43526 2 
-3.290 48.626 9.34545 0.56618 2 
-1.645 48.626 9.23433 0.60218 2 
0.000 48.626 9.27429 0.57744 2 
1.645 48.626 9.52010 0.63959 2 
3.290 48.626 0.00000 -0.00000 0 
4.935 48.626 0.00000 -0.00000 0 
6.579 48.626 0.00000 -0.00000 0 
8.224 48.626 0.00000 -0.00000 0 
9.869 48.626 0.00000 -0.00000 0 
11.514 48.626 0.00000 -0.00000 0 
13.159 48.626 0.00000 -0.00000 0 
14.804 48.626 0.00000 -0.00000 0 
16.449 48.626 0.00000 -0.00000 0 
18.093 48.626 0.00000 -0.00000 0 
19.738 48.626 0.00000 -0.00000 0 
21.383 48.626 0.00000 -0.00000 0 
23.028 48.626 5.09313 0.48133 2 
24.673 48.626 10.18626 0.96265 2 
26.318 48.626 9.08263 1.08928 2 
27.963 48.626 9.43854 0.83441 2 
29.607 48.626 9.31342 1.06070 2 
31.252 48.626 9.43129 0.89444 2 
32.897 48.626 9.63122 1.00530 2 
34.542 48.626 9.47457 0.95646 2 
36.187 48.626 9.41748 1.06184 2 
37.832 48.626 9.57151 1.09683 2 
39.477 48.626 9.75299 1.07629 2 
41.121 48.626 9.62358 0.92709 2 
42.766 48.626 10.03438 1.28427 2 
44.411 48.626 9.93691 1.10778 2 
46.056 48.626 9.89132 1.06157 2 
47.701 48.626 9.95292 1.01492 2 
49.346 48.626 9.86333 0.84117 2 
50.991 48.626 9.83067 1.03996 2 
52.636 48.626 10.13633 0.93895 2 
54.280 48.626 10.16874 1.09154 2 
55.925 48.626 10.05145 1.04142 2 
57.570 48.626 9.85999 0.98615 2 
59.215 48.626 10.11157 1.07131 2 
60.860 48.626 10.26110 0.98210 2 
62.505 48.626 10.17986 1.20816 2 
64.150 48.626 10.14964 1.06764 2 
65.794 48.626 10.22893 1.14638 2 
67.439 48.626 10.19482 1.08493 2 
69.084 48.626 10.13808 0.99641 2 
70.729 48.626 10.55927 1.05204 2 
72.374 48.626 10.36743 1.19648 2 
74.019 48.626 10.51688 1.20699 2 
75.664 48.626 10.49409 1.14611 2 
77.308 48.626 10.46431 0.97522 2 
78.953 48.626 10.76120 1.15869 2 
80.598 48.626 10.88356 0.88731 2 
82.243 48.626 10.99519 0.89100 2 
83.888 48.626 10.97037 1.11501 2 
85.533 48.626 10.82898 1.02338 2 
87.178 48.626 10.80986 0.79484 2 
88.822 48.626 10.77212 0.85819 2 
90.467 48.626 10.53997 0.97401 2 
92.112 48.626 11.08561 0.86434 2 
93.757 48.626 10.71582 0.47812 2 
95.402 48.626 10.97597 0.61500 2 
97.047 48.626 11.03983 0.71530 2 
98.692 48.626 11.15503 0.87480 2 
100.336 48.626 11.79333 0.94324 2 
101.981 48.626 0.00000 -0.00000 0 
103.626 48.626 0.00000 -0.00000 0 
105.271 48.626 0.00000 -0.00000 0 
106.916 48.626 5.92865 0.09243 2 
108.561 48.626 11.47481 0.51098 2 
110.206 48.626 11.03549 0.33677 2 
111.850 48.626 11.10780 0.64351 2 
113.495 48.626 10.99786 0.56142 2 
115.140 48.626 10.82713 0.18693 2 
116.785 48.626 11.00715 0.16656 2 
118.430 48.626 11.18716 0.14620 2 
120.075 48.626 11.03781 0.12369 2 
121.720 48.626 11.10582 0.14660 2 
123.364 48.626 11.21072 -0.00015 2 
125.009 48.626 11.18080 0.25305 2 
126.654 48.626 11.20981 -0.07657 2 
128.299 48.626 11.00476 -0.20053 2 
129.944 48.626 10.95543 -0.14365 2 
131.589 48.626 10.93535 -0.00268 2 
133.234 48.626 11.04703 0.16641 2 
134.879 48.626 10.86103 -0.18785 2 
136.523 48.626 10.66494 -0.32576 2 
138.168 48.626 10.79481 -0.33291 2 
139.813 48.626 10.55263 -0.35927 2 
141.458 48.626 10.33219 0.00772 2 
143.103 48.626 10.81722 -0.03975 2 
144.748 48.626 10.44693 -0.32196 2 
146.393 48.626 10.71675 -0.15935 2 
148.037 48.626 10.38958 -0.20719 2 
149.682 48.626 10.49257 -0.30731 2 
151.327 48.626 10.43511 -0.60405 2 
152.972 48.626 0.00000 -0.00000 0 
-13.159 46.981 0.00000 -0.00000 0 
-11.514 46.981 9.32873 0.45645 2 
-9.869 46.981 9.18947 0.42905 2 
-8.224 46.981 9.29289 0.45039 2 
-6.579 46.981 9.35097 0.53810 2 
-4.935 46.981 9.29571 0.49686 2 
-3.290 46.981 9.27219 0.50689 2 
-1.645 46.981 9.27957 0.56081 2 
0.000 46.981 9.19353 0.62908 2 
1.645 46.981 9.50895 0.42225 2 
3.290 46.981 0.00000 -0.00000 0 
4.935 46.981 0.00000 -0.00000 0 
6.579 46.981 0.00000 -0.00000 0 
8.224 46.981 0.00000 -0.00000 0 
9.869 46.981 0.00000 -0.00000 0 
11.514 46.981 0.00000 -0.00000 0 
13.159 46.981 0.00000 -0.00000 0 
14.804 46.981 0.00000 -0.00000 0 
16.449 46.981 0.00000 -0.00000 0 
18.093 46.981 0.00000 -0.00000 0 
19.738 46.981 0.00000 -0.00000 0 
21.383 46.981 0.00000 -0.00000 0 
23.028 46.981 0.77107 0.08868 2 
24.673 46.981 9.35352 0.60948 2 
26.318 46.981 9.39114 1.12881 2 
27.963 46.981 9.69193 1.19785 2 
29.607 46.981 9.37605 1.27131 2 
31.252 46.981 9.43897 0.83760 2 
32.897 46.981 9.77816 0.93749 2 
34.542 46.981 9.52746 0.96989 2 
36.187 46.981 9.62366 0.95677 2 
37.832 46.981 9.60174 0.92959 2 
39.477 46.981 9.62008 0.99099 2 
41.121 46.981 9.62324 0.83523 2 
42.766 46.981 9.84084 1.18013 2 
44.411 46.981 10.03466 1.24451 2 
46.056 46.981 9.86088 1.23159 2 
47.701 46.981 9.96653 1.23225 2 
49.346 46.981 9.79999 1.21159 2 
50.991 46.981 9.66830 1.10320 2 
52.636 46.981 10.09595 1.00912 2 
54.280 46.981 10.09012 1.20600 2 
55.925 46.981 10.11393 1.20056 2 
57.570 46.981 9.92564 1.19181 2 
59.215 46.981 10.24885 1.33223 2 
60.860 46.981 10.17318 1.11285 2 
62.505 46.981 10.29352 1.20080 2 
64.150 46.981 10.37492 1.16607 2 
65.794 46.981 10.42518 1.08216 2 
67.439 46.981 9.98169 1.08593 2 
69.084 46.981 10.00084 1.16699 2 
70.729 46.981 10.58482 1.29687 2 
72.374 46.981 10.61394 1.24004 2 
74.019 46.981 10.61437 1.25212 2 
75.664 46.981 10.54742 1.08841 2 
77.308 46.981 10.62953 1.05449 2 
78.953 46.981 10.57711 1.29994 2 
80.598 46.981 10.67475 0.93444 2 
82.243 46.981 10.66984 0.93543 2 
83.888 46.981 10.45785 0.97637 2 
85.533 46.981 10.83391 1.11837 2 
87.178 46.981 11.04045 1.17515 2 
88.822 46.981 10.83580 0.90238 2 
90.467 46.981 10.74231 1.00440 2 
92.112 46.981 11.27356 0.83809 2 
93.757 46.981 10.93890 0.54161 2 
95.402 46.981 11.13474 0.74686 2 
97.047 46.981 10.78476 0.75780 2 
98.692 46.981 11.14350 0.73072 2 
100.336 46.981 11.89136 1.03429 2 
101.981 46.981 0.00000 -0.00000 0 
103.626 46.981 0.00000 -0.00000 0 
105.271 46.981 0.00000 -0.00000 0 
106.916 46.981 5.45873 0.01382 2 
108.561 46.981 11.44342 0.49436 2 
110.206 46.981 11.19744 0.42925 2 
111.850 46.981 11.08178 0.64010 2 
113.495 46.981 11.15335 0.40901 2 
115.140 46.981 11.03378 0.40171 2 
116.785 46.981 11.42209 0.13585 2 
118.430 46.981 11.35120 0.30582 2 
120.075 46.981 11.04034 0.21502 2 
121.720 46.981 11.18405 0.03596 2 
123.364 46.981 11.26383 -0.14429 2 
125.009 46.981 11.16448 0.20576 2 
126.654 46.981 11.09815 0.11586 2 
128.299 46.981 11.01164 -0.25346 2 
129.944 46.981 10.98509 -0.26099 2 
131.589 46.981 10.86458 -0.28729 2 
133.234 46.981 10.98879 -0.07570 2 
134.879 46.981 11.07714 -0.16346 2 
136.523 46.981 10.56053 -0.19979 2 
138.168 46.981 10.91562 -0.18072 2 
139.813 46.981 10.33827 -0.21268 2 
141.458 46.981 10.49541 -0.09592 2 
143.103 46.981 10.78044 -0.34780 2 
144.748 46.981 10.47083 0.10503 2 
146.393 46.981 10.67333 -0.32930 2 
148.037 46.981 10.44185 -0.40982 2 
149.682 46.981 10.59416 -0.07163 2 
151.327 46.981 10.60958 -0.31629 2 
152.972 46.981 0.00000 -0.00000 0 
-13.159 45.336 0.00000 -0.00000 0 
-11.514 45.336 9.48601 0.57609 2 
-9.869 45.336 9.17172 0.32237 2 
-8.224 45.336 9.25658 0.22527 2 
-6.579 45.336 9.12059 0.37545 2 
-4.935 45.336 9.22652 0.52757 2 
-3.290 45.336 9.14001 0.50140 2 
-1.645 45.336 9.30570 0.50052 2 
0.000 45.336 9.25188 0.53984 2 
1.645 45.336 9.66924 0.59445 2 
3.290 45.336 4.97901 0.36133 2 
4.935 45.336 0.00000 -0.00000 0 
6.579 45.336 0.00000 -0.00000 0 
8.224 45.336 0.00000 -0.00000 0 
9.869 45.336 0.00000 -0.00000 0 
11.514 45.336 0.00000 -0.00000 0 
13.159 45.336 0.00000 -0.00000 0 
14.804 45.336 0.00000 -0.00000 0 
16.449 45.336 0.00000 -0.00000 0 
18.093 45.336 0.00000 -0.00000 0 
19.738 45.336 0.00000 -0.00000 0 
21.383 45.336 0.00000 -0.00000 0 
23.028 45.336 4.83893 0.34042 2 
24.673 45.336 9.67786 0.68084 2 
26.318 45.336 9.21952 1.12528 2 
27.963 45.336 9.56656 1.05088 2 
29.607 45.336 9.52168 1.06391 2 
31.252 45.336 9.31431 1.12779 2 
32.897 45.336 9.62903 1.19827 2 
34.542 45.336 9.50773 1.13996 2 
36.187 45.336 9.73050 0.99862 2 
37.832 45.336 9.71890 1.01295 2 
39.477 45.336 9.65519 1.22169 2 
41.121 45.336 9.52589 1.32620 2 
42.766 45.336 9.39510 1.32426 2 
44.411 45.336 9.67453 1.40330 2 
46.056 45.336 9.68758 1.30289 2 
47.701 45.336 9.82594 1.04726 2 
49.346 45.336 9.90426 1.35422 2 
50.991 45.336 9.77980 1.11970 2 
52.636 45.336 10.11808 1.18797 2 
54.280 45.336 9.96915 1.26924 2 
55.925 45.336 10.15552 1.21853 2 
57.570 45.336 9.98598 1.09332 2 
59.215 45.336 10.34340 1.32127 2 
60.860 45.336 10.28588 1.23895 2 
62.505 45.336 10.12074 1.52015 2 
64.150 45.336 10.44265 1.31714 2 
65.794 45.336 10.11151 1.27888 2 
67.439 45.336 10.15641 1.22214 2 
69.084 45.336 10.25991 1.31629 2 
70.729 45.336 10.32491 1.22818 2 
72.374 45.336 10.70336 1.22420 2 
74.019 45.336 10.97121 1.27495 2 
75.664 45.336 10.41541 1.10838 2 
77.308 45.336 10.25953 1.03488 2 
78.953 45.336 10.47758 1.26176 2 
80.598 45.336 10.59122 1.10625 2 
82.243 45.336 10.74384 0.88159 2 
83.888 45.336 10.64581 1.17046 2 
85.533 45.336 10.62724 1.05908 2 
87.178 45.336 10.79759 1.14500 2 
88.822 45.336 10.77016 1.24907 2 
90.467 45.336 10.66356 0.98801 2 
92.112 45.336 10.79521 0.95899 2 
93.757 45.336 11.00036 1.26024 2 
95.402 45.336 11.00187 0.90369 2 
97.047 45.336 10.86395 0.82181 2 
98.692 45.336 11.12998 0.63395 2 
100.336 45.336 11.67190 0.72325 2 
101.981 45.336 0.43682 0.66389 2 
103.626 45.336 0.00000 -0.00000 0 
105.271 45.336 0.00000 -0.00000 0 
106.916 45.336 5.39438 0.04331 2 
108.561 45.336 11.11118 0.47377 2 
110.206 45.336 11.27139 0.41963 2 
111.850 45.336 11.17842 0.44728 2 
113.495 45.336 11.34455 0.41433 2 
115.140 45.336 11.24976 0.62305 2 
116.785 45.336 11.30087 0.40248 2 
118.430 45.336 11.06692 0.14619 2 
120.075 45.336 11.37626 0.18843 2 
121.720 45.336 11.26229 -0.07467 2 
123.364 45.336 11.35792 0.14801 2 
125.009 45.336 11.16893 0.09854 2 
126.654 45.336 11.05395 0.00808 2 
128.299 45.336 11.15401 -0.12988 2 
129.944 45.336 10.89031 -0.54198 2 
131.589 45.336 10.79784 -0.36435 2 
133.234 45.336 10.87697 -0.28671 2 
134.879 45.336 10.86212 -0.41324 2 
136.523 45.336 10.70536 0.09739 2 
138.168 45.336 10.72688 0.11087 2 
139.813 45.336 10.58748 -0.18962 2 
141.458 45.336 10.62815 -0.17397 2 
143.103 45.336 10.49331 -0.54042 2 
144.748 45.336 10.47913 -0.10050 2 
146.393 45.336 10.74120 -0.13773 2 
148.037 45.336 10.71809 -0.27324 2 
149.682 45.336 10.55463 -0.18627 2 
151.327 45.336 10.78405 -0.02853 2 
152.972 45.336 0.00000 -0.00000 0 
-13.159 43.692 0.00000 -0.00000 0 
-11.514 43.692 9.58037 0.41466 2 
-9.869 43.692 9.19638 0.23266 2 
-8.224 43.692 9.18000 0.36299 2 
-6.579 43.692 9.13408 0.30369 2 
-4.935 43.692 9.35302 0.31499 2 
-3.290 43.692 9.14764 0.61752 2 
-1.645 43.692 9.28921 0.63045 2 
0.000 43.692 9.26314 0.56605 2 
1.645 43.692 9.49582 0.62799 2 
3.290 43.692 9.74172 0.73551 2 
4.935 43.692 0.00000 -0.00000 0 
6.579 43.692 0.00000 -0.00000 0 
8.224 43.692 0.00000 -0.00000 0 
9.869 43.692 0.00000 -0.00000 0 
11.514 43.692 0.00000 -0.00000 0 
13.159 43.692 0.00000 -0.00000 0 
14.804 43.692 0.00000 -0.00000 0 
16.449 43.692 0.00000 -0.00000 0 
18.093 43.692 0.00000 -0.00000 0 
19.738 43.692 0.00000 -0.00000 0 
21.383 43.692 0.00000 -0.00000 0 
23.028 43.692 5.07445 0.51636 2 
24.673 43.692 10.14891 1.03272 2 
26.318 43.692 8.96324 1.08724 2 
27.963 43.692 9.38374 1.05693 2 
29.607 43.692 9.50719 0.98762 2 
31.252 43.692 9.23778 1.11835 2 
32.897 43.692 9.40980 1.16195 2 
34.542 43.692 9.59433 1.17163 2 
36.187 43.692 9.44869 1.09082 2 
37.832 43.692 9.64183 1.12942 2 
39.477 43.692 9.67041 0.92229 2 
41.121 43.692 9.77978 0.97808 2 
42.766 43.692 9.59599 1.20339 2 
44.411 43.692 9.66640 1.34569 2 
46.056 43.692 9.82011 0.83029 2 
47.701 43.692 9.97682 0.91363 2 
49.346 43.692 9.86753 1.21871 2 
50.991 43.692 9.96476 0.96486 2 
52.636 43.692 10.02984 1.41160 2 
54.280 43.692 10.12548 1.32377 2 
55.925 43.692 10.19480 1.27633 2 
57.570 43.692 9.94660 1.12589 2 
59.215 43.692 10.09839 1.13520 2 
60.860 43.692 10.17467 1.22263 2 
62.505 43.692 10.08503 1.50762 2 
64.150 43.692 10.23409 1.32227 2 
65.794 43.692 10.26955 0.94453 2 
67.439 43.692 10.14081 0.98491 2 
69.084 43.692 10.30857 1.06955 2 
70.729 43.692 10.37032 0.93724 2 
72.374 43.692 10.78883 1.02895 2 
74.019 43.692 10.79812 1.20452 2 
75.664 43.692 10.26418 0.96040 2 
77.308 43.692 10.34075 1.10152 2 
78.953 43.692 10.57157 1.02179 2 
80.598 43.692 10.60561 1.18893 2 
82.243 43.692 10.74441 1.12369 2 
83.888 43.692 10.83268 1.02582 2 
85.533 43.692 10.84445 1.11046 2 
87.178 43.692 10.98068 1.15881 2 
88.822 43.692 11.00461 1.13837 2 
90.467 43.692 10.76287 1.08778 2 
92.112 43.692 10.70877 1.01001 2 
93.757 43.692 11.04134 1.11121 2 
95.402 43.692 10.94896 0.89871 2 
97.047 43.692 11.00432 0.97885 2 
98.692 43.692 11.23173 0.77133 2 
100.336 43.692 11.17923 1.18884 2 
101.981 43.692 0.87364 1.32779 2 
103.626 43.692 0.00000 -0.00000 0 
105.271 43.692 0.00000 -0.00000 0 
106.916 43.692 5.41353 -0.23896 2 
108.561 43.692 11.52307 0.47520 2 
110.206 43.692 11.52641 0.41480 2 
111.850 43.692 11.33436 0.41849 2 
113.495 43.692 11.34572 0.56022 2 
115.140 43.692 11.41130 0.35847 2 
116.785 43.692 11.45106 -0.00505 2 
118.430 43.692 11.14482 0.05052 2 
120.075 43.692 11.15693 0.06329 2 
121.720 43.692 11.22552 0.15265 2 
123.364 43.692 11.08864 0.25112 2 
125.009 43.692 10.99728 -0.13617 2 
126.654 43.692 11.10337 -0.07356 2 
128.299 43.692 11.04775 -0.13101 2 
129.944 43.692 10.91559 -0.35565 2 
131.589 43.692 11.03472 -0.38607 2 
133.234 43.692 10.98564 -0.39584 2 
134.879 43.692 10.77746 -0.49186 2 
136.523 43.692 10.82058 -0.34395 2 
138.168 43.692 10.63137 -0.33900 2 
139.813 43.692 10.82754 -0.38380 2 
141.458 43.692 10.53820 -0.14544 2 
143.103 43.692 10.46712 -0.21014 2 
144.748 43.692 10.40668 -0.16834 2 
146.393 43.692 10.52555 -0.30261 2 
148.037 43.692 10.51106 -0.05827 2 
149.682 43.692 10.53967 -0.04536 2 
151.327 43.692 10.84404 -0.26839 2 
152.972 43.692 0.00000 -0.00000 0 
-13.159 42.047 0.00000 -0.00000 0 
-11.514 42.047 9.61190 0.42866 2 
-9.869 42.047 9.14223 0.30322 2 
-8.224 42.047 9.15299 0.42781 2 
-6.579 42.047 9.03646 0.63713 2 
-4.935 42.047 9.15049 0.40380 2 
-3.290 42.047 9.08552 0.50145 2 
-1.645 42.047 9.05785 0.67338 2 
0.000 42.047 9.16801 0.62081 2 
1.645 42.047 8.98499 0.51056 2 
3.290 42.047 9.20935 0.41019 2 
4.935 42.047 0.00000 -0.00000 0 
6.579 42.047 0.00000 -0.00000 0 
8.224 42.047 0.00000 -0.00000 0 
9.869 42.047 0.00000 -0.00000 0 
11.514 42.047 0.00000 -0.00000 0 
13.159 42.047 0.00000 -0.00000 0 
14.804 42.047 0.00000 -0.00000 0 
16.449 42.047 0.00000 -0.00000 0 
18.093 42.047 0.00000 -0.00000 0 
19.738 42.047 0.00000 -0.00000 0 
21.383 42.047 0.00000 -0.00000 0 
23.028 42.047 4.94346 0.47604 2 
24.673 42.047 9.88692 0.95208 2 
26.318 42.047 9.16683 1.03938 2 
27.963 42.047 9.33405 1.16889 2 
29.607 42.047 9.33881 1.05741 2 
31.252 42.047 9.23422 1.03907 2 
32.897 42.047 9.56096 0.97703 2 
34.542 42.047 9.66677 1.16994 2 
36.187 42.047 9.40676 1.24345 2 
37.832 42.047 9.42627 1.23274 2 
39.477 42.047 9.33220 1.09670 2 
41.121 42.047 9.65498 1.32776 2 
42.766 42.047 9.78884 1.16557 2 
44.411 42.047 9.62421 0.99632 2 
46.056 42.047 9.80634 1.11627 2 
47.701 42.047 10.07088 1.15873 2 
49.346 42.047 9.62738 1.34509 2 
50.991 42.047 9.71585 1.28870 2 
52.636 42.047 10.03723 1.25782 2 
54.280 42.047 9.91433 1.19654 2 
55.925 42.047 9.88111 1.23697 2 
57.570 42.047 9.88358 1.41562 2 
59.215 42.047 9.88954 1.37609 2 
60.860 42.047 10.05803 1.28635 2 
62.505 42.047 10.23998 1.46738 2 
64.150 42.047 10.29787 1.48369 2 
65.794 42.047 10.39959 1.03990 2 
67.439 42.047 10.14663 1.03697 2 
69.084 42.047 10.48782 1.10738 2 
70.729 42.047 10.58411 1.16947 2 
72.374 42.047 10.83266 0.99982 2 
74.019 42.047 10.56212 1.28153 2 
75.664 42.047 10.39840 1.49516 2 
77.308 42.047 10.83975 1.14290 2 
78.953 42.047 10.67261 1.10478 2 
80.598 42.047 10.70981 1.21626 2 
82.243 42.047 10.92775 1.24987 2 
83.888 42.047 10.68520 1.02778 2 
85.533 42.047 10.89531 1.19591 2 
87.178 42.047 11.01975 0.88588 2 
88.822 42.047 11.08454 1.12946 2 
90.467 42.047 11.11887 1.34423 2 
92.112 42.047 11.17632 1.12501 2 
93.757 42.047 11.10990 1.13243 2 
95.402 42.047 10.93372 0.74281 2 
97.047 42.047 11.07710 0.70903 2 
98.692 42.047 11.32670 0.81564 2 
100.336 42.047 10.94182 1.04752 2 
101.981 42.047 0.66528 0.43204 2 
103.626 42.047 0.00000 -0.00000 0 
105.271 42.047 0.00000 -0.00000 0 
106.916 42.047 5.43328 -0.21024 2 
108.561 42.047 10.32190 0.41416 2 
110.206 42.047 11.77564 0.43575 2 
111.850 42.047 11.51500 0.29429 2 
113.495 42.047 11.28942 0.45849 2 
115.140 42.047 11.47798 0.42275 2 
116.785 42.047 11.35193 0.24153 2 
118.430 42.047 11.26833 0.11987 2 
120.075 42.047 11.23389 -0.07923 2 
121.720 42.047 11.30932 0.25218 2 
123.364 42.047 11.22180 -0.06709 2 
125.009 42.047 11.00454 -0.28709 2 
126.654 42.047 11.15280 -0.15520 2 
128.299 42.047 10.85420 -0.21500 2 
129.944 42.047 10.90670 -0.30719 2 
131.589 42.047 10.91148 -0.31668 2 
133.234 42.047 11.06546 -0.47335 2 
134.879 42.047 10.80530 -0.47348 2 
136.523 42.047 10.85674 -0.47431 2 
138.168 42.047 10.54146 -0.59172 2 
139.813 42.047 10.84715 -0.37801 2 
141.458 42.047 10.52283 0.03837 2 
143.103 42.047 10.32578 -0.09888 2 
144.748 42.047 10.43711 -0.18287 2 
146.393 42.047 10.34228 -0.22692 2 
148.037 42.047 10.31510 0.00543 2 
149.682 42.047 10.60632 0.02420 2 
151.327 42.047 11.09370 -0.21560 2 
152.972 42.047 0.00000 -0.00000 0 
-13.159 40.402 0.00000 -0.00000 0 
-11.514 40.402 9.64342 0.44266 2 
-9.869 40.402 9.10206 0.34249 2 
-8.224 40.402 9.15507 0.27911 2 
-6.579 40.402 9.03362 0.55925 2 
-4.935 40.402 9.03489 0.63379 2 
-3.290 40.402 9.04245 0.43621 2 
-1.645 40.402 9.12493 0.54111 2 
0.000 40.402 9.00176 0.79168 2 
1.645 40.402 9.12113 0.57838 2 
3.290 40.402 9.14900 0.63666 2 
4.935 40.402 0.00000 -0.00000 0 
6.579 40.402 0.00000 -0.00000 0 
8.224 40.402 0.00000 -0.00000 0 
9.869 40.402 0.00000 -0.00000 0 
11.514 40.402 0.00000 -0.00000 0 
13.159 40.402 0.00000 -0.00000 0 
14.804 40.402 0.00000 -0.00000 0 
16.449 40.402 0.00000 -0.00000 0 
18.093 40.402 0.00000 -0.00000 0 
19.738 40.402 0.00000 -0.00000 0 
21.383 40.402 0.00000 -0.00000 0 
23.028 40.402 4.61090 0.37999 2 
24.673 40.402 9.22180 0.75999 2 
26.318 40.402 9.14534 1.17332 2 
27.963 40.402 9.27483 1.18102 2 
29.607 40.402 9.37067 1.12721 2 
31.252 40.402 9.47623 0.97234 2 
32.897 40.402 9.49108 0.94967 2 
34.542 40.402 9.58305 1.34055 2 
36.187 40.402 9.31963 1.37107 2 
37.832 40.402 9.63634 1.16335 2 
39.477 40.402 9.70421 1.12194 2 
41.121 40.402 9.40463 1.44958 2 
42.766 40.402 9.83250 1.42929 2 
44.411 40.402 9.75119 1.38780 2 
46.056 40.402 9.76295 1.53464 2 
47.701 40.402 9.92603 1.42274 2 
49.346 40.402 9.69350 1.36598 2 
50.991 40.402 9.84183 1.20245 2 
52.636 40.402 9.94299 1.22093 2 
54.280 40.402 9.78237 1.06122 2 
55.925 40.402 9.81446 1.13482 2 
57.570 40.402 10.10478 1.25786 2 
59.215 40.402 10.13509 1.34292 2 
60.860 40.402 10.44663 1.53296 2 
62.505 40.402 10.22579 1.58370 2 
64.150 40.402 10.52552 1.55077 2 
65.794 40.402 10.34929 1.42417 2 
67.439 40.402 10.33988 1.47237 2 
69.084 40.402 10.68219 1.20307 2 
70.729 40.402 10.42442 1.45114 2 
72.374 40.402 10.47661 1.43357 2 
74.019 40.402 10.35419 1.30601 2 
75.664 40.402 10.57135 1.51225 2 
77.308 40.402 10.80460 1.14174 2 
78.953 40.402 10.59342 1.21074 2 
80.598 40.402 10.76649 1.23510 2 
82.243 40.402 10.93025 1.21179 2 
83.888 40.402 10.68141 1.20257 2 