TITLE = "B00010"
VARIABLES = "X [mm]", "Y [mm]", "Vx [m/s]", "Vy [m/s]", "Flag"
ZONE T="Frame 1", I=102, J=77, F=POINT
-13.159 53.561 0.00000 -0.00000 0 
-11.514 53.561 9.34855 0.18203 2 
-9.869 53.561 9.26534 0.28985 2 
-8.224 53.561 9.41295 0.23725 2 
-6.579 53.561 9.31327 -0.03787 2 
-4.935 53.561 9.22256 0.00608 2 
-3.290 53.561 9.33815 0.00715 2 
-1.645 53.561 9.41299 0.11052 2 
0.000 53.561 9.30910 0.21818 2 
1.645 53.561 9.47842 0.03515 2 
3.290 53.561 0.00000 -0.00000 0 
4.935 53.561 0.00000 -0.00000 0 
6.579 53.561 0.00000 -0.00000 0 
8.224 53.561 0.00000 -0.00000 0 
9.869 53.561 0.00000 -0.00000 0 
11.514 53.561 0.00000 -0.00000 0 
13.159 53.561 0.00000 -0.00000 0 
14.804 53.561 0.00000 -0.00000 0 
16.449 53.561 0.00000 -0.00000 0 
18.093 53.561 0.00000 -0.00000 0 
19.738 53.561 0.00000 -0.00000 0 
21.383 53.561 0.00000 -0.00000 0 
23.028 53.561 1.40452 0.27904 2 
24.673 53.561 9.54908 0.47792 2 
26.318 53.561 9.43900 0.34928 2 
27.963 53.561 9.47164 0.35991 2 
29.607 53.561 9.50428 0.37054 2 
31.252 53.561 9.53692 0.38117 2 
32.897 53.561 9.56956 0.39179 2 
34.542 53.561 9.60220 0.40242 2 
36.187 53.561 9.63484 0.41305 2 
37.832 53.561 9.66748 0.42368 2 
39.477 53.561 9.70012 0.43431 2 
41.121 53.561 9.73276 0.44494 2 
42.766 53.561 9.76539 0.45557 2 
44.411 53.561 9.79803 0.46619 2 
46.056 53.561 9.83067 0.47682 2 
47.701 53.561 9.86331 0.48745 2 
49.346 53.561 9.89595 0.49808 2 
50.991 53.561 9.92859 0.50871 2 
52.636 53.561 9.96123 0.51934 2 
54.280 53.561 9.99387 0.52996 2 
55.925 53.561 10.02651 0.54059 2 
57.570 53.561 10.05915 0.55122 2 
59.215 53.561 10.09179 0.56185 2 
60.860 53.561 10.12442 0.57248 2 
62.505 53.561 10.15706 0.58311 2 
64.150 53.561 10.18970 0.59374 2 
65.794 53.561 10.22234 0.60436 2 
67.439 53.561 10.25498 0.61499 2 
69.084 53.561 10.26327 0.56429 2 
70.729 53.561 10.33614 0.47883 2 
72.374 53.561 10.36172 0.45277 2 
74.019 53.561 10.38730 0.42671 2 
75.664 53.561 10.41287 0.40065 2 
77.308 53.561 10.43845 0.37459 2 
78.953 53.561 10.46403 0.34853 2 
80.598 53.561 10.48960 0.32247 2 
82.243 53.561 10.51518 0.29641 2 
83.888 53.561 10.54076 0.27035 2 
85.533 53.561 10.54227 0.25257 2 
87.178 53.561 10.54378 0.23479 2 
88.822 53.561 10.54530 0.21700 2 
90.467 53.561 10.54681 0.19922 2 
92.112 53.561 10.54832 0.18144 2 
93.757 53.561 10.54984 0.16365 2 
95.402 53.561 10.55135 0.14587 2 
97.047 53.561 10.55286 0.12809 2 
98.692 53.561 11.58889 0.29950 2 
100.336 53.561 5.79444 0.14975 2 
101.981 53.561 0.00000 -0.00000 0 
103.626 53.561 0.00000 -0.00000 0 
105.271 53.561 0.00000 -0.00000 0 
106.916 53.561 5.66180 0.15782 2 
108.561 53.561 11.32359 0.31564 2 
110.206 53.561 11.15964 0.18500 2 
111.850 53.561 11.16294 0.12004 2 
113.495 53.561 11.05569 0.18057 2 
115.140 53.561 10.93862 0.34704 2 
116.785 53.561 11.12734 0.29400 2 
118.430 53.561 11.22474 0.19379 2 
120.075 53.561 10.96108 0.28404 2 
121.720 53.561 10.82977 0.22299 2 
123.364 53.561 11.03717 0.08045 2 
125.009 53.561 11.15123 0.20556 2 
126.654 53.561 11.10949 0.10518 2 
128.299 53.561 11.08392 -0.11890 2 
129.944 53.561 11.12550 -0.12897 2 
131.589 53.561 11.02362 -0.10925 2 
133.234 53.561 10.95108 -0.16229 2 
134.879 53.561 11.06930 -0.31128 2 
136.523 53.561 11.13679 -0.28878 2 
138.168 53.561 11.20092 -0.25389 2 
139.813 53.561 10.98193 -0.27791 2 
141.458 53.561 10.79175 -0.21026 2 
143.103 53.561 10.93430 -0.17505 2 
144.748 53.561 10.86906 -0.12856 2 
146.393 53.561 10.93735 -0.30588 2 
148.037 53.561 10.79231 -0.37017 2 
149.682 53.561 10.69958 -0.31870 2 
151.327 53.561 10.80880 0.02212 2 
152.972 53.561 0.00000 -0.00000 0 
-13.159 51.916 0.00000 -0.00000 0 
-11.514 51.916 9.37784 0.27012 2 
-9.869 51.916 9.30147 0.56271 2 
-8.224 51.916 9.37457 0.51995 2 
-6.579 51.916 9.34457 0.54538 2 
-4.935 51.916 9.30706 0.67896 2 
-3.290 51.916 9.29326 0.85798 2 
-1.645 51.916 9.35321 0.83785 2 
0.000 51.916 9.09061 0.63436 2 
1.645 51.916 9.23208 0.48750 2 
3.290 51.916 0.00000 -0.00000 0 
4.935 51.916 0.00000 -0.00000 0 
6.579 51.916 0.00000 -0.00000 0 
8.224 51.916 0.00000 -0.00000 0 
9.869 51.916 0.00000 -0.00000 0 
11.514 51.916 0.00000 -0.00000 0 
13.159 51.916 0.00000 -0.00000 0 
14.804 51.916 0.00000 -0.00000 0 
16.449 51.916 0.00000 -0.00000 0 
18.093 51.916 0.00000 -0.00000 0 
19.738 51.916 0.00000 -0.00000 0 
21.383 51.916 0.00000 -0.00000 0 
23.028 51.916 1.01641 -0.29119 2 
24.673 51.916 10.08261 0.82452 2 
26.318 51.916 9.37260 1.02878 2 
27.963 51.916 9.48653 1.06217 2 
29.607 51.916 9.48246 1.25024 2 
31.252 51.916 9.49056 1.25068 2 
32.897 51.916 9.48684 1.09200 2 
34.542 51.916 9.47636 1.08707 2 
36.187 51.916 9.54808 1.23044 2 
37.832 51.916 9.53937 1.29472 2 
39.477 51.916 9.72021 1.17584 2 
41.121 51.916 9.92870 1.34771 2 
42.766 51.916 9.97261 1.40533 2 
44.411 51.916 10.02899 1.45323 2 
46.056 51.916 9.68691 1.18969 2 
47.701 51.916 9.95439 1.18917 2 
49.346 51.916 9.81510 1.21652 2 
50.991 51.916 9.75785 1.08041 2 
52.636 51.916 10.01655 1.09357 2 
54.280 51.916 9.93536 1.15364 2 
55.925 51.916 9.82178 1.10996 2 
57.570 51.916 10.12370 1.17162 2 
59.215 51.916 10.13246 1.41844 2 
60.860 51.916 10.22174 1.18415 2 
62.505 51.916 10.19732 1.14791 2 
64.150 51.916 10.17289 1.11168 2 
65.794 51.916 10.38732 1.09665 2 
67.439 51.916 10.37844 1.39586 2 
69.084 51.916 10.47002 1.50630 2 
70.729 51.916 10.49380 1.46356 2 
72.374 51.916 10.51714 1.33764 2 
74.019 51.916 10.33975 1.47030 2 
75.664 51.916 10.55991 1.44762 2 
77.308 51.916 10.52328 1.33515 2 
78.953 51.916 10.73483 1.15866 2 
80.598 51.916 10.47794 1.16418 2 
82.243 51.916 10.61245 1.34289 2 
83.888 51.916 10.74227 0.62681 2 
85.533 51.916 10.63617 1.23524 2 
87.178 51.916 11.26388 1.07518 2 
88.822 51.916 11.03749 1.21480 2 
90.467 51.916 10.94470 1.24818 2 
92.112 51.916 11.08233 0.99802 2 
93.757 51.916 11.00065 1.19343 2 
95.402 51.916 11.03450 0.98146 2 
97.047 51.916 10.65191 1.04882 2 
98.692 51.916 11.81222 1.24440 2 
100.336 51.916 5.90611 0.62220 2 
101.981 51.916 0.00000 -0.00000 0 
103.626 51.916 0.00000 -0.00000 0 
105.271 51.916 0.00000 -0.00000 0 
106.916 51.916 5.34870 0.39450 2 
108.561 51.916 10.69740 0.78900 2 
110.206 51.916 11.04636 0.90828 2 
111.850 51.916 11.37777 0.66915 2 
113.495 51.916 11.12230 0.48284 2 
115.140 51.916 10.83891 0.55384 2 
116.785 51.916 11.11472 0.41799 2 
118.430 51.916 11.31558 0.18175 2 
120.075 51.916 11.08888 0.22782 2 
121.720 51.916 11.15935 0.12799 2 
123.364 51.916 11.16318 -0.02760 2 
125.009 51.916 11.17704 0.32962 2 
126.654 51.916 11.28820 0.12063 2 
128.299 51.916 10.97880 0.15210 2 
129.944 51.916 11.09043 0.11582 2 
131.589 51.916 11.24048 -0.15941 2 
133.234 51.916 10.93185 -0.43941 2 
134.879 51.916 10.96659 -0.46038 2 
136.523 51.916 11.23168 -0.13785 2 
138.168 51.916 11.30442 -0.14876 2 
139.813 51.916 11.14156 -0.46221 2 
141.458 51.916 11.07774 -0.55900 2 
143.103 51.916 10.85809 -0.67638 2 
144.748 51.916 10.69415 -0.33902 2 
146.393 51.916 10.94190 -0.69046 2 
148.037 51.916 10.91106 -0.77477 2 
149.682 51.916 10.88572 -0.67291 2 
151.327 51.916 10.81299 -0.49891 2 
152.972 51.916 0.00000 -0.00000 0 
-13.159 50.271 0.00000 -0.00000 0 
-11.514 50.271 9.40713 0.35822 2 
-9.869 50.271 9.23113 0.17551 2 
-8.224 50.271 9.18228 0.48561 2 
-6.579 50.271 9.12452 0.52528 2 
-4.935 50.271 9.08311 0.70849 2 
-3.290 50.271 9.18944 0.72933 2 
-1.645 50.271 9.32399 0.48553 2 
0.000 50.271 9.08201 0.40924 2 
1.645 50.271 9.41356 0.66419 2 
3.290 50.271 0.00000 -0.00000 0 
4.935 50.271 0.00000 -0.00000 0 
6.579 50.271 0.00000 -0.00000 0 
8.224 50.271 0.00000 -0.00000 0 
9.869 50.271 0.00000 -0.00000 0 
11.514 50.271 0.00000 -0.00000 0 
13.159 50.271 0.00000 -0.00000 0 
14.804 50.271 0.00000 -0.00000 0 
16.449 50.271 0.00000 -0.00000 0 
18.093 50.271 0.00000 -0.00000 0 
19.738 50.271 0.00000 -0.00000 0 
21.383 50.271 0.00000 -0.00000 0 
23.028 50.271 3.04078 0.15525 2 
24.673 50.271 10.61615 1.17113 2 
26.318 50.271 9.89139 1.04127 2 
27.963 50.271 9.51816 0.89555 2 
29.607 50.271 9.53246 1.06943 2 
31.252 50.271 9.65733 1.02597 2 
32.897 50.271 9.65842 0.93060 2 
34.542 50.271 9.52261 1.05349 2 
36.187 50.271 9.76790 0.95720 2 
37.832 50.271 9.84318 1.11784 2 
39.477 50.271 9.91551 0.98187 2 
41.121 50.271 9.89101 1.00551 2 
42.766 50.271 9.51865 0.90127 2 
44.411 50.271 9.57986 1.25540 2 
46.056 50.271 9.66183 1.12391 2 
47.701 50.271 9.83071 0.90411 2 
49.346 50.271 10.01215 1.14592 2 
50.991 50.271 9.86263 1.21796 2 
52.636 50.271 10.16613 0.99962 2 
54.280 50.271 10.09428 1.20127 2 
55.925 50.271 9.90628 1.09145 2 
57.570 50.271 9.94480 1.22012 2 
59.215 50.271 9.98248 1.11659 2 
60.860 50.271 10.12901 1.09954 2 
62.505 50.271 10.21707 1.07559 2 
64.150 50.271 10.30512 1.05164 2 
65.794 50.271 10.38251 1.12110 2 
67.439 50.271 10.33483 1.11470 2 
69.084 50.271 10.62645 1.25002 2 
70.729 50.271 10.23274 1.01640 2 
72.374 50.271 10.50976 1.14467 2 
74.019 50.271 10.50484 1.08366 2 
75.664 50.271 10.60562 1.33491 2 
77.308 50.271 10.49061 1.22652 2 
78.953 50.271 10.80806 1.00502 2 
80.598 50.271 10.73848 0.86998 2 
82.243 50.271 10.92152 0.70709 2 
83.888 50.271 10.94379 0.98327 2 
85.533 50.271 10.73096 0.89194 2 
87.178 50.271 10.97352 0.96705 2 
88.822 50.271 11.03307 1.16384 2 
90.467 50.271 10.84865 0.95830 2 
92.112 50.271 11.01930 1.01013 2 
93.757 50.271 11.10001 0.84053 2 
95.402 50.271 10.79395 0.56215 2 
97.047 50.271 10.57658 0.61099 2 
98.692 50.271 11.23130 0.82560 2 
100.336 50.271 5.61565 0.41280 2 
101.981 50.271 0.00000 -0.00000 0 
103.626 50.271 0.00000 -0.00000 0 
105.271 50.271 0.00000 -0.00000 0 
106.916 50.271 1.77456 -0.13764 2 
108.561 50.271 11.03934 0.37085 2 
110.206 50.271 11.14004 0.79435 2 
111.850 50.271 11.26034 0.64062 2 
113.495 50.271 10.97838 0.30932 2 
115.140 50.271 11.12171 0.02996 2 
116.785 50.271 11.10209 0.54199 2 
118.430 50.271 11.10440 0.26211 2 
120.075 50.271 10.92989 0.06321 2 
121.720 50.271 11.27755 0.08900 2 
123.364 50.271 11.50988 0.15507 2 
125.009 50.271 11.35482 0.11761 2 
126.654 50.271 11.53859 -0.02698 2 
128.299 50.271 11.18974 0.06526 2 
129.944 50.271 11.14378 0.17318 2 
131.589 50.271 11.33248 -0.14501 2 
133.234 50.271 11.26868 -0.27261 2 
134.879 50.271 11.20154 -0.28954 2 
136.523 50.271 11.20610 -0.19175 2 
138.168 50.271 11.24464 -0.26473 2 
139.813 50.271 11.14955 -0.61297 2 
141.458 50.271 11.23245 -0.51227 2 
143.103 50.271 10.85299 -0.67963 2 
144.748 50.271 11.25855 -0.61490 2 
146.393 50.271 10.84840 -0.53596 2 
148.037 50.271 10.82789 -0.66892 2 
149.682 50.271 10.75204 -0.90895 2 
151.327 50.271 10.92114 -1.15451 2 
152.972 50.271 0.00000 -0.00000 0 
-13.159 48.626 0.00000 -0.00000 0 
-11.514 48.626 9.07395 0.42903 2 
-9.869 48.626 9.08627 0.44441 2 
-8.224 48.626 9.30606 0.52386 2 
-6.579 48.626 9.21294 0.65313 2 
-4.935 48.626 9.25084 0.52678 2 
-3.290 48.626 9.33636 0.63124 2 
-1.645 48.626 9.34809 0.55610 2 
0.000 48.626 9.25380 0.48167 2 
1.645 48.626 9.55508 0.93292 2 
3.290 48.626 0.00000 -0.00000 0 
4.935 48.626 0.00000 -0.00000 0 
6.579 48.626 0.00000 -0.00000 0 
8.224 48.626 0.00000 -0.00000 0 
9.869 48.626 0.00000 -0.00000 0 
11.514 48.626 0.00000 -0.00000 0 
13.159 48.626 0.00000 -0.00000 0 
14.804 48.626 0.00000 -0.00000 0 
16.449 48.626 0.00000 -0.00000 0 
18.093 48.626 0.00000 -0.00000 0 
19.738 48.626 0.00000 -0.00000 0 
21.383 48.626 0.00000 -0.00000 0 
23.028 48.626 5.06515 0.60169 2 
24.673 48.626 10.13030 1.20338 2 
26.318 48.626 9.91150 0.79370 2 
27.963 48.626 9.40165 0.96594 2 
29.607 48.626 9.61884 1.09277 2 
31.252 48.626 9.50146 1.07927 2 
32.897 48.626 9.47795 1.14232 2 
34.542 48.626 9.58784 0.97381 2 
36.187 48.626 9.80560 1.03821 2 
37.832 48.626 9.81901 1.38126 2 
39.477 48.626 9.63741 1.38005 2 
41.121 48.626 9.73174 1.36257 2 
42.766 48.626 9.68365 1.23707 2 
44.411 48.626 9.78432 0.92817 2 
46.056 48.626 9.86995 1.02598 2 
47.701 48.626 9.70683 1.22102 2 
49.346 48.626 9.90877 1.16677 2 
50.991 48.626 9.95933 1.19008 2 
52.636 48.626 9.88764 1.15256 2 
54.280 48.626 10.16809 1.21615 2 
55.925 48.626 10.34327 1.14627 2 
57.570 48.626 9.99979 1.32881 2 
59.215 48.626 10.02624 1.11228 2 
60.860 48.626 10.25392 1.14756 2 
62.505 48.626 10.15170 1.35395 2 
64.150 48.626 10.02003 1.25323 2 
65.794 48.626 10.15949 1.26246 2 
67.439 48.626 10.30703 1.14722 2 
69.084 48.626 10.54573 1.29262 2 
70.729 48.626 10.51487 1.13442 2 
72.374 48.626 10.39573 1.36502 2 
74.019 48.626 10.49372 1.09942 2 
75.664 48.626 10.56655 1.19364 2 
77.308 48.626 10.51922 1.12120 2 
78.953 48.626 10.60348 1.18019 2 
80.598 48.626 10.74981 1.08326 2 
82.243 48.626 10.65733 0.77420 2 
83.888 48.626 10.65791 0.79407 2 
85.533 48.626 10.82066 0.83705 2 
87.178 48.626 10.61465 0.80814 2 
88.822 48.626 10.82165 0.99684 2 
90.467 48.626 10.76087 1.04422 2 
92.112 48.626 10.99535 1.15064 2 
93.757 48.626 10.85116 0.75207 2 
95.402 48.626 11.00159 0.60248 2 
97.047 48.626 11.33899 0.57367 2 
98.692 48.626 10.86728 0.82691 2 
100.336 48.626 11.54849 1.25877 2 
101.981 48.626 0.00000 -0.00000 0 
103.626 48.626 0.00000 -0.00000 0 
105.271 48.626 0.00000 -0.00000 0 
106.916 48.626 6.41340 0.17176 2 
108.561 48.626 11.60451 0.76119 2 
110.206 48.626 11.40490 0.70706 2 
111.850 48.626 11.06019 0.44823 2 
113.495 48.626 11.03230 0.60734 2 
115.140 48.626 11.20272 0.32533 2 
116.785 48.626 11.06470 0.23413 2 
118.430 48.626 11.13017 0.25050 2 
120.075 48.626 11.34116 0.47819 2 
121.720 48.626 11.32652 0.16210 2 
123.364 48.626 11.21319 -0.18080 2 
125.009 48.626 11.30363 -0.18277 2 
126.654 48.626 11.44447 -0.11326 2 
128.299 48.626 11.36960 0.04390 2 
129.944 48.626 11.08921 0.06762 2 
131.589 48.626 11.27839 -0.24506 2 
133.234 48.626 11.44171 -0.13673 2 
134.879 48.626 11.15170 -0.11485 2 
136.523 48.626 10.99267 -0.15252 2 
138.168 48.626 10.99418 -0.27020 2 
139.813 48.626 11.01654 -0.41521 2 
141.458 48.626 11.29184 -0.26259 2 
143.103 48.626 11.22725 -0.27610 2 
144.748 48.626 11.26920 -0.55197 2 
146.393 48.626 10.91942 -0.70740 2 
148.037 48.626 10.97854 -0.59179 2 
149.682 48.626 10.98688 -0.29078 2 
151.327 48.626 11.03954 -1.34716 2 
152.972 48.626 0.00000 -0.00000 0 
-13.159 46.981 0.00000 -0.00000 0 
-11.514 46.981 9.28565 0.33042 2 
-9.869 46.981 9.18097 0.40279 2 
-8.224 46.981 9.07507 0.37661 2 
-6.579 46.981 9.25962 0.47921 2 
-4.935 46.981 9.23702 0.38113 2 
-3.290 46.981 8.99626 0.31901 2 
-1.645 46.981 9.25331 0.58204 2 
0.000 46.981 9.21778 0.61553 2 
1.645 46.981 9.40238 0.82671 2 
3.290 46.981 0.00000 -0.00000 0 
4.935 46.981 0.00000 -0.00000 0 
6.579 46.981 0.00000 -0.00000 0 
8.224 46.981 0.00000 -0.00000 0 
9.869 46.981 0.00000 -0.00000 0 
11.514 46.981 0.00000 -0.00000 0 
13.159 46.981 0.00000 -0.00000 0 
14.804 46.981 0.00000 -0.00000 0 
16.449 46.981 0.00000 -0.00000 0 
18.093 46.981 0.00000 -0.00000 0 
19.738 46.981 0.00000 -0.00000 0 
21.383 46.981 0.00000 -0.00000 0 
23.028 46.981 5.06515 0.60169 2 
24.673 46.981 10.14850 1.29470 2 
26.318 46.981 9.79722 0.95198 2 
27.963 46.981 9.33982 0.93731 2 
29.607 46.981 9.48235 1.30210 2 
31.252 46.981 9.37059 1.06516 2 
32.897 46.981 9.46741 1.00417 2 
34.542 46.981 9.67689 1.01165 2 
36.187 46.981 9.61408 1.12697 2 
37.832 46.981 9.71240 1.20300 2 
39.477 46.981 9.49444 1.09627 2 
41.121 46.981 9.59219 1.23044 2 
42.766 46.981 9.90297 1.48077 2 
44.411 46.981 9.89424 1.30380 2 
46.056 46.981 10.18118 1.24815 2 
47.701 46.981 9.87833 1.19722 2 
49.346 46.981 9.68662 1.30214 2 
50.991 46.981 9.87454 1.25540 2 
52.636 46.981 9.86391 1.00793 2 
54.280 46.981 10.24189 1.23103 2 
55.925 46.981 10.41098 1.24384 2 
57.570 46.981 10.17337 1.25032 2 
59.215 46.981 10.22220 1.32301 2 
60.860 46.981 10.37883 1.19558 2 
62.505 46.981 10.11216 1.35761 2 
64.150 46.981 10.12543 1.11869 2 
65.794 46.981 10.18216 1.11843 2 
67.439 46.981 10.15154 1.21882 2 
69.084 46.981 10.47035 1.26040 2 
70.729 46.981 10.45346 1.09664 2 
72.374 46.981 10.52804 1.24897 2 
74.019 46.981 10.60915 1.04339 2 
75.664 46.981 10.71918 1.11273 2 
77.308 46.981 10.43366 1.17656 2 
78.953 46.981 10.70828 1.14394 2 
80.598 46.981 10.74906 1.05092 2 
82.243 46.981 10.71828 1.34828 2 
83.888 46.981 10.73996 1.26623 2 
85.533 46.981 10.81871 1.15564 2 
87.178 46.981 10.89436 1.23204 2 
88.822 46.981 10.75931 1.06128 2 
90.467 46.981 10.69062 0.89415 2 
92.112 46.981 10.79988 1.08338 2 
93.757 46.981 10.92377 0.90856 2 
95.402 46.981 11.04841 0.72393 2 
97.047 46.981 10.93612 1.02109 2 
98.692 46.981 10.77083 0.81712 2 
100.336 46.981 11.84630 1.16126 2 
101.981 46.981 0.00000 -0.00000 0 
103.626 46.981 0.00000 -0.00000 0 
105.271 46.981 0.00000 -0.00000 0 
106.916 46.981 6.62620 0.43252 2 
108.561 46.981 11.48527 0.80217 2 
110.206 46.981 11.11925 0.57329 2 
111.850 46.981 11.07404 0.49068 2 
113.495 46.981 11.22622 0.23028 2 
115.140 46.981 11.27411 0.34514 2 
116.785 46.981 11.07065 0.33911 2 
118.430 46.981 11.14029 0.17408 2 
120.075 46.981 11.43184 0.45016 2 
121.720 46.981 11.25115 0.24443 2 
123.364 46.981 11.31097 0.21235 2 
125.009 46.981 11.54567 0.01854 2 
126.654 46.981 11.34514 -0.05686 2 
128.299 46.981 11.50527 -0.00955 2 
129.944 46.981 11.16559 0.13157 2 
131.589 46.981 11.17745 -0.22035 2 
133.234 46.981 11.35197 -0.36231 2 
134.879 46.981 11.13942 -0.20608 2 
136.523 46.981 11.08770 -0.34502 2 
138.168 46.981 11.22212 -0.58927 2 
139.813 46.981 11.26937 -0.44769 2 
141.458 46.981 11.19437 -0.33157 2 
143.103 46.981 11.24037 -0.40545 2 
144.748 46.981 11.21116 -0.74101 2 
146.393 46.981 10.82358 -0.82212 2 
148.037 46.981 11.18266 -0.70717 2 
149.682 46.981 11.00662 -0.54391 2 
151.327 46.981 11.12424 -1.25522 2 
152.972 46.981 0.00000 -0.00000 0 
-13.159 45.336 0.00000 -0.00000 0 
-11.514 45.336 9.52406 0.33000 2 
-9.869 45.336 9.27450 0.45239 2 
-8.224 45.336 9.08954 0.51697 2 
-6.579 45.336 9.38028 0.53764 2 
-4.935 45.336 9.37560 0.54205 2 
-3.290 45.336 8.99556 0.40618 2 
-1.645 45.336 9.26853 0.53534 2 
0.000 45.336 9.15863 0.55392 2 
1.645 45.336 9.54385 0.40404 2 
3.290 45.336 5.10773 0.02478 2 
4.935 45.336 0.00000 -0.00000 0 
6.579 45.336 0.00000 -0.00000 0 
8.224 45.336 0.00000 -0.00000 0 
9.869 45.336 0.00000 -0.00000 0 
11.514 45.336 0.00000 -0.00000 0 
13.159 45.336 0.00000 -0.00000 0 
14.804 45.336 0.00000 -0.00000 0 
16.449 45.336 0.00000 -0.00000 0 
18.093 45.336 0.00000 -0.00000 0 
19.738 45.336 0.00000 -0.00000 0 
21.383 45.336 0.00000 -0.00000 0 
23.028 45.336 5.08335 0.69301 2 
24.673 45.336 10.16671 1.38603 2 
26.318 45.336 9.56602 1.09842 2 
27.963 45.336 9.29369 0.96425 2 
29.607 45.336 9.43563 1.19794 2 
31.252 45.336 9.41212 0.96801 2 
32.897 45.336 9.47794 0.91742 2 
34.542 45.336 9.73356 1.14908 2 
36.187 45.336 9.69793 1.03395 2 
37.832 45.336 9.56943 1.04799 2 
39.477 45.336 9.53545 0.97513 2 
41.121 45.336 9.69111 1.02006 2 
42.766 45.336 9.60535 1.30495 2 
44.411 45.336 9.54648 1.26165 2 
46.056 45.336 9.74783 1.47832 2 
47.701 45.336 9.84653 1.20247 2 
49.346 45.336 9.68702 1.22307 2 
50.991 45.336 9.87756 1.14409 2 
52.636 45.336 9.79284 1.38820 2 
54.280 45.336 9.93720 1.30032 2 
55.925 45.336 10.17676 1.30671 2 
57.570 45.336 10.00253 1.34674 2 
59.215 45.336 10.11992 1.03291 2 
60.860 45.336 10.19004 1.16687 2 
62.505 45.336 10.07263 1.36127 2 
64.150 45.336 10.32903 1.17202 2 
65.794 45.336 10.40048 1.05106 2 
67.439 45.336 10.13739 1.18784 2 
69.084 45.336 10.55295 1.23835 2 
70.729 45.336 10.50800 1.33946 2 
72.374 45.336 10.57739 1.14284 2 
74.019 45.336 10.77336 1.25097 2 
75.664 45.336 10.68127 1.25905 2 
77.308 45.336 10.38496 1.28248 2 
78.953 45.336 10.76298 1.29408 2 
80.598 45.336 10.64295 1.18366 2 
82.243 45.336 10.67755 1.11935 2 
83.888 45.336 10.99188 0.91035 2 
85.533 45.336 10.98947 0.96026 2 
87.178 45.336 10.94154 1.19243 2 
88.822 45.336 10.89133 1.21710 2 
90.467 45.336 10.87512 0.71280 2 
92.112 45.336 10.74329 0.98737 2 
93.757 45.336 11.08781 1.05524 2 
95.402 45.336 11.01137 0.92539 2 
97.047 45.336 10.66968 0.90093 2 
98.692 45.336 11.02969 0.94557 2 
100.336 45.336 12.14412 1.06375 2 
101.981 45.336 3.93273 0.21708 2 
103.626 45.336 0.00000 -0.00000 0 
105.271 45.336 0.00000 -0.00000 0 
106.916 45.336 6.13046 0.57656 2 
108.561 45.336 11.23391 0.69592 2 
110.206 45.336 11.22617 0.57422 2 
111.850 45.336 11.33881 0.73690 2 
113.495 45.336 11.34342 0.35047 2 
115.140 45.336 11.29741 0.31840 2 
116.785 45.336 11.19349 0.51500 2 
118.430 45.336 11.36655 0.53595 2 
120.075 45.336 11.40767 0.24946 2 
121.720 45.336 11.43852 0.29622 2 
123.364 45.336 11.43694 0.34060 2 
125.009 45.336 11.50246 0.09536 2 
126.654 45.336 11.06852 -0.03851 2 
128.299 45.336 11.49553 -0.16879 2 
129.944 45.336 11.47681 -0.09523 2 
131.589 45.336 11.24879 -0.32151 2 
133.234 45.336 11.28526 -0.34537 2 
134.879 45.336 11.59296 -0.24387 2 
136.523 45.336 11.33911 -0.25432 2 
138.168 45.336 11.43715 -0.58705 2 
139.813 45.336 11.31052 -0.60788 2 
141.458 45.336 11.30141 -0.38009 2 
143.103 45.336 11.38483 -0.42582 2 
144.748 45.336 11.22424 -0.87678 2 
146.393 45.336 10.89232 -0.89252 2 
148.037 45.336 11.07299 -1.00426 2 
149.682 45.336 10.89686 -0.99207 2 
151.327 45.336 11.20894 -1.16327 2 
152.972 45.336 0.00000 -0.00000 0 
-13.159 43.692 0.00000 -0.00000 0 
-11.514 43.692 9.31733 0.10304 2 
-9.869 43.692 9.27920 0.37630 2 
-8.224 43.692 9.15893 0.55576 2 
-6.579 43.692 9.19071 0.50224 2 
-4.935 43.692 9.37084 0.67026 2 
-3.290 43.692 9.08326 0.52723 2 
-1.645 43.692 9.22768 0.42773 2 
0.000 43.692 9.04908 0.61447 2 
1.645 43.692 9.40438 0.60948 2 
3.290 43.692 5.40512 0.18669 2 
4.935 43.692 0.00000 -0.00000 0 
6.579 43.692 0.00000 -0.00000 0 
8.224 43.692 0.00000 -0.00000 0 
9.869 43.692 0.00000 -0.00000 0 
11.514 43.692 0.00000 -0.00000 0 
13.159 43.692 0.00000 -0.00000 0 
14.804 43.692 0.00000 -0.00000 0 
16.449 43.692 0.00000 -0.00000 0 
18.093 43.692 0.00000 -0.00000 0 
19.738 43.692 0.00000 -0.00000 0 
21.383 43.692 0.00000 -0.00000 0 
23.028 43.692 5.09246 0.73868 2 
24.673 43.692 9.93140 1.30804 2 
26.318 43.692 9.38902 1.10279 2 
27.963 43.692 9.40750 0.94465 2 
29.607 43.692 9.39682 0.94127 2 
31.252 43.692 9.43211 1.00995 2 
32.897 43.692 9.32082 0.90745 2 
34.542 43.692 9.50851 1.19817 2 
36.187 43.692 9.69722 1.04125 2 
37.832 43.692 9.46978 1.45932 2 
39.477 43.692 9.53128 1.20452 2 
41.121 43.692 9.92479 1.22840 2 
42.766 43.692 9.46662 1.15386 2 
44.411 43.692 9.52332 0.99720 2 
46.056 43.692 9.74981 1.22194 2 
47.701 43.692 9.87682 1.21480 2 
49.346 43.692 9.71883 1.16984 2 
50.991 43.692 9.96507 1.19006 2 
52.636 43.692 9.83192 1.51969 2 
54.280 43.692 9.88507 1.36370 2 
55.925 43.692 10.26740 1.33707 2 
57.570 43.692 10.16898 1.21785 2 
59.215 43.692 9.99559 1.11858 2 
60.860 43.692 9.94629 1.27306 2 
62.505 43.692 10.16484 1.41248 2 
64.150 43.692 10.53264 1.22535 2 
65.794 43.692 10.45893 1.05485 2 
67.439 43.692 10.43668 1.20335 2 
69.084 43.692 10.62417 1.16422 2 
70.729 43.692 10.59313 1.25228 2 
72.374 43.692 10.46684 1.33537 2 
74.019 43.692 10.51242 1.20473 2 
75.664 43.692 10.66399 1.25676 2 
77.308 43.692 10.57361 1.16194 2 
78.953 43.692 10.81233 1.22773 2 
80.598 43.692 10.78816 0.88788 2 
82.243 43.692 10.77168 0.95260 2 
83.888 43.692 10.69287 1.06064 2 
85.533 43.692 10.67526 1.17675 2 
87.178 43.692 10.90582 1.26952 2 
88.822 43.692 11.03233 1.29402 2 
90.467 43.692 11.05487 0.97764 2 
92.112 43.692 11.00489 0.84689 2 
93.757 43.692 11.22765 0.83944 2 
95.402 43.692 11.15254 1.17547 2 
97.047 43.692 11.09250 0.93076 2 
98.692 43.692 11.00829 0.94666 2 
100.336 43.692 11.79818 0.65124 2 
101.981 43.692 5.89909 0.32562 2 
103.626 43.692 0.00000 -0.00000 0 
105.271 43.692 0.00000 -0.00000 0 
106.916 43.692 5.52978 0.13338 2 
108.561 43.692 11.23337 0.61137 2 
110.206 43.692 10.92267 0.71953 2 
111.850 43.692 11.28902 0.82921 2 
113.495 43.692 11.39930 0.35403 2 
115.140 43.692 11.34301 0.24645 2 
116.785 43.692 11.43690 0.53851 2 
118.430 43.692 11.45510 0.52355 2 
120.075 43.692 11.40809 0.55835 2 
121.720 43.692 11.66633 0.28938 2 
123.364 43.692 11.47524 0.13534 2 
125.009 43.692 11.35344 0.09855 2 
126.654 43.692 11.12241 -0.06122 2 
128.299 43.692 11.25844 -0.09384 2 
129.944 43.692 11.38580 -0.07881 2 
131.589 43.692 11.31843 -0.10499 2 
133.234 43.692 11.30619 -0.19129 2 
134.879 43.692 11.40855 -0.26016 2 
136.523 43.692 11.40899 -0.44678 2 
138.168 43.692 11.34382 -0.33271 2 
139.813 43.692 11.29680 -0.66411 2 
141.458 43.692 11.41380 -0.44175 2 
143.103 43.692 11.20505 -0.59090 2 
144.748 43.692 11.07439 -0.77644 2 
146.393 43.692 11.21168 -0.82900 2 
148.037 43.692 11.21998 -0.93341 2 
149.682 43.692 10.97765 -1.12565 2 
151.327 43.692 11.29363 -1.07133 2 
152.972 43.692 0.00000 -0.00000 0 
-13.159 42.047 0.00000 -0.00000 0 
-11.514 42.047 9.22010 0.13742 2 
-9.869 42.047 9.12328 0.27982 2 
-8.224 42.047 8.98986 0.33272 2 
-6.579 42.047 9.12579 0.37178 2 
-4.935 42.047 9.18395 0.51702 2 
-3.290 42.047 9.23876 0.60242 2 
-1.645 42.047 9.08997 0.57215 2 
0.000 42.047 8.97589 0.63480 2 
1.645 42.047 9.26491 0.81492 2 
3.290 42.047 9.27158 0.87298 2 
4.935 42.047 0.00000 -0.00000 0 
6.579 42.047 0.00000 -0.00000 0 
8.224 42.047 0.00000 -0.00000 0 
9.869 42.047 0.00000 -0.00000 0 
11.514 42.047 0.00000 -0.00000 0 
13.159 42.047 0.00000 -0.00000 0 
14.804 42.047 0.00000 -0.00000 0 
16.449 42.047 0.00000 -0.00000 0 
18.093 42.047 0.00000 -0.00000 0 
19.738 42.047 0.00000 -0.00000 0 
21.383 42.047 0.00000 -0.00000 0 
23.028 42.047 1.43985 0.98514 2 
24.673 42.047 9.69609 1.23004 2 
26.318 42.047 9.49074 1.16093 2 
27.963 42.047 9.40764 1.02695 2 
29.607 42.047 9.42376 1.22817 2 
31.252 42.047 9.58363 1.34975 2 
32.897 42.047 9.51221 1.06790 2 
34.542 42.047 9.62597 1.22651 2 
36.187 42.047 9.50653 1.20818 2 
37.832 42.047 9.33154 1.22783 2 
39.477 42.047 9.48641 1.44967 2 
41.121 42.047 9.93342 1.21325 2 
42.766 42.047 9.52091 1.19187 2 
44.411 42.047 9.69554 1.25438 2 
46.056 42.047 9.64940 1.34621 2 
47.701 42.047 9.83894 1.13908 2 
49.346 42.047 10.05595 1.10068 2 
50.991 42.047 10.01072 1.23182 2 
52.636 42.047 10.03438 1.42789 2 
54.280 42.047 10.22662 1.40112 2 
55.925 42.047 10.22494 1.27819 2 
57.570 42.047 10.33543 1.08895 2 
59.215 42.047 9.98974 1.39085 2 
60.860 42.047 10.07917 1.36305 2 
62.505 42.047 10.28843 1.29191 2 
64.150 42.047 10.32297 1.34819 2 
65.794 42.047 10.47700 0.92537 2 
67.439 42.047 10.40771 1.16642 2 
69.084 42.047 10.21739 1.33922 2 
70.729 42.047 10.30301 1.11204 2 
72.374 42.047 10.50098 1.20328 2 
74.019 42.047 10.39657 1.14722 2 
75.664 42.047 10.73791 1.37757 2 
77.308 42.047 10.76225 1.04140 2 
78.953 42.047 10.65954 1.27008 2 
80.598 42.047 10.84285 1.14538 2 
82.243 42.047 10.82112 1.16091 2 
83.888 42.047 10.67259 1.24769 2 
85.533 42.047 10.78548 1.20565 2 
87.178 42.047 10.85495 1.10952 2 
88.822 42.047 10.93949 1.19538 2 
90.467 42.047 10.70074 0.97150 2 
92.112 42.047 10.86282 0.77836 2 
93.757 42.047 11.06135 0.75720 2 
95.402 42.047 10.90220 0.79956 2 
97.047 42.047 11.05145 0.88216 2 
98.692 42.047 10.76063 0.90105 2 
100.336 42.047 11.45167 0.72960 2 
101.981 42.047 10.60567 0.31269 2 
103.626 42.047 0.00000 -0.00000 0 
105.271 42.047 0.00000 -0.00000 0 
106.916 42.047 5.74960 -0.05374 2 
108.561 42.047 11.64572 0.58536 2 
110.206 42.047 11.38253 0.53608 2 
111.850 42.047 11.39643 0.71367 2 
113.495 42.047 11.50622 0.28916 2 
115.140 42.047 11.19063 0.45214 2 
116.785 42.047 11.74481 0.50066 2 
118.430 42.047 11.38850 0.40154 2 
120.075 42.047 11.42740 0.30988 2 
121.720 42.047 11.37612 0.22382 2 
123.364 42.047 11.28934 0.13856 2 
125.009 42.047 11.39078 0.25996 2 
126.654 42.047 11.49665 -0.02304 2 
128.299 42.047 11.42265 -0.08430 2 
129.944 42.047 11.32277 0.12601 2 
131.589 42.047 11.49290 -0.05024 2 
133.234 42.047 11.32601 -0.23125 2 
134.879 42.047 11.34035 -0.33885 2 
136.523 42.047 11.15200 -0.42072 2 
138.168 42.047 11.30506 -0.56504 2 
139.813 42.047 11.28309 -0.72034 2 
141.458 42.047 11.67041 -0.68333 2 
143.103 42.047 11.38199 -0.66197 2 
144.748 42.047 11.04898 -0.76208 2 
146.393 42.047 11.58092 -0.80328 2 
148.037 42.047 11.32067 -1.01537 2 
149.682 42.047 11.05160 -0.95290 2 
151.327 42.047 11.55534 -0.93507 2 
152.972 42.047 0.00000 -0.00000 0 
-13.159 40.402 0.00000 -0.00000 0 
-11.514 40.402 9.63773 0.36601 2 
-9.869 40.402 9.19726 0.33259 2 
-8.224 40.402 9.22265 0.41132 2 
-6.579 40.402 9.06086 0.24132 2 
-4.935 40.402 9.05839 0.43685 2 
-3.290 40.402 9.20896 0.69642 2 
-1.645 40.402 9.17857 0.72691 2 
0.000 40.402 9.18872 0.49657 2 
1.645 40.402 9.46531 0.52865 2 
3.290 40.402 9.05959 0.49535 2 
4.935 40.402 0.00000 -0.00000 0 
6.579 40.402 0.00000 -0.00000 0 
8.224 40.402 0.00000 -0.00000 0 
9.869 40.402 0.00000 -0.00000 0 
11.514 40.402 0.00000 -0.00000 0 
13.159 40.402 0.00000 -0.00000 0 
14.804 40.402 0.00000 -0.00000 0 
16.449 40.402 0.00000 -0.00000 0 
18.093 40.402 0.00000 -0.00000 0 
19.738 40.402 0.00000 -0.00000 0 
21.383 40.402 0.00000 -0.00000 0 
23.028 40.402 4.76225 0.73013 2 
24.673 40.402 9.52449 1.46027 2 
26.318 40.402 9.32702 1.11198 2 
27.963 40.402 9.31733 0.91405 2 
29.607 40.402 9.66568 1.14844 2 
31.252 40.402 9.43229 1.22722 2 
32.897 40.402 9.46908 1.27062 2 
34.542 40.402 9.64070 1.37285 2 
36.187 40.402 9.51842 1.22630 2 
37.832 40.402 9.46896 0.97496 2 
39.477 40.402 9.26922 1.13499 2 
41.121 40.402 9.87230 1.16406 2 
42.766 40.402 9.94064 1.25919 2 
44.411 40.402 9.78917 1.36004 2 
46.056 40.402 9.53429 1.47289 2 
47.701 40.402 9.64086 1.52644 2 
49.346 40.402 10.05718 1.51708 2 
50.991 40.402 9.83677 1.56595 2 
52.636 40.402 9.91164 1.41207 2 
54.280 40.402 10.00134 1.30830 2 
55.925 40.402 9.98980 1.31286 2 
57.570 40.402 10.12589 1.37304 2 
59.215 40.402 10.08787 1.45353 2 
60.860 40.402 10.25656 1.39662 2 
62.505 40.402 10.19724 1.24946 2 
64.150 40.402 10.15293 1.33914 2 
65.794 40.402 10.34419 1.26199 2 
67.439 40.402 10.26138 1.18133 2 
69.084 40.402 10.27609 1.29260 2 
70.729 40.402 10.37766 1.43644 2 
72.374 40.402 10.38436 1.51516 2 
74.019 40.402 10.55645 1.20945 2 
75.664 40.402 10.83087 1.38461 2 
77.308 40.402 10.69077 1.10657 2 
78.953 40.402 10.50675 1.31243 2 
80.598 40.402 11.01618 1.22646 2 
82.243 40.402 10.85379 1.29084 2 
83.888 40.402 10.88155 1.19902 2 