TITLE = "B00031"
VARIABLES = "X [mm]", "Y [mm]", "Vx [m/s]", "Vy [m/s]", "Flag"
ZONE T="Frame 1", I=102, J=77, F=POINT
-13.159 53.561 0.00000 -0.00000 0 
-11.514 53.561 9.53392 0.03968 2 
-9.869 53.561 9.39885 -0.02045 2 
-8.224 53.561 9.39762 0.12305 2 
-6.579 53.561 9.17285 0.15170 2 
-4.935 53.561 9.38346 0.07594 2 
-3.290 53.561 9.34390 0.04991 2 
-1.645 53.561 9.30433 0.02387 2 
0.000 53.561 9.86478 0.00140 2 
1.645 53.561 4.93239 0.00070 2 
3.290 53.561 0.00000 -0.00000 0 
4.935 53.561 0.00000 -0.00000 0 
6.579 53.561 0.00000 -0.00000 0 
8.224 53.561 0.00000 -0.00000 0 
9.869 53.561 0.00000 -0.00000 0 
11.514 53.561 0.00000 -0.00000 0 
13.159 53.561 0.00000 -0.00000 0 
14.804 53.561 0.00000 -0.00000 0 
16.449 53.561 0.00000 -0.00000 0 
18.093 53.561 0.00000 -0.00000 0 
19.738 53.561 0.00000 -0.00000 0 
21.383 53.561 0.00000 -0.00000 0 
23.028 53.561 0.60026 -0.16618 2 
24.673 53.561 0.25484 -0.11773 2 
26.318 53.561 4.60610 0.27546 2 
27.963 53.561 8.95735 0.66865 2 
29.607 53.561 9.13217 0.71841 2 
31.252 53.561 8.87587 0.72026 2 
32.897 53.561 8.96281 0.71346 2 
34.542 53.561 9.04976 0.70666 2 
36.187 53.561 9.13670 0.69986 2 
37.832 53.561 9.22365 0.69307 2 
39.477 53.561 9.31059 0.68627 2 
41.121 53.561 9.39754 0.67947 2 
42.766 53.561 9.48449 0.67267 2 
44.411 53.561 9.57143 0.66588 2 
46.056 53.561 9.65838 0.65908 2 
47.701 53.561 9.74532 0.65228 2 
49.346 53.561 9.83227 0.64548 2 
50.991 53.561 9.91922 0.63869 2 
52.636 53.561 9.90891 0.54131 2 
54.280 53.561 9.95076 0.50795 2 
55.925 53.561 9.99262 0.47458 2 
57.570 53.561 10.03448 0.44122 2 
59.215 53.561 10.07633 0.40785 2 
60.860 53.561 10.11819 0.37449 2 
62.505 53.561 10.16004 0.34112 2 
64.150 53.561 10.17113 0.40709 2 
65.794 53.561 10.18970 0.40983 2 
67.439 53.561 10.20826 0.41257 2 
69.084 53.561 10.24639 0.45870 2 
70.729 53.561 10.30960 0.36924 2 
72.374 53.561 10.44265 0.29568 2 
74.019 53.561 10.52012 0.20019 2 
75.664 53.561 10.53690 0.19366 2 
77.308 53.561 10.55368 0.18713 2 
78.953 53.561 10.57046 0.18060 2 
80.598 53.561 10.58724 0.17407 2 
82.243 53.561 10.60402 0.16754 2 
83.888 53.561 10.62080 0.16101 2 
85.533 53.561 10.63758 0.15448 2 
87.178 53.561 10.65436 0.14795 2 
88.822 53.561 10.67114 0.14142 2 
90.467 53.561 10.77944 -0.08970 2 
92.112 53.561 10.74519 -0.10987 2 
93.757 53.561 10.80383 -0.12768 2 
95.402 53.561 10.94146 -0.16935 2 
97.047 53.561 11.14470 0.00077 2 
98.692 53.561 11.89817 0.29937 2 
100.336 53.561 3.76424 0.17720 2 
101.981 53.561 0.00000 -0.00000 0 
103.626 53.561 0.00000 -0.00000 0 
105.271 53.561 0.00000 -0.00000 0 
106.916 53.561 5.71444 0.34094 2 
108.561 53.561 11.57692 0.17268 2 
110.206 53.561 10.99297 0.22594 2 
111.850 53.561 11.26120 0.25359 2 
113.495 53.561 11.08568 0.39832 2 
115.140 53.561 11.23226 0.14686 2 
116.785 53.561 11.02256 0.19325 2 
118.430 53.561 10.95092 0.32217 2 
120.075 53.561 11.16975 0.28213 2 
121.720 53.561 11.15696 0.23533 2 
123.364 53.561 11.35714 0.00051 2 
125.009 53.561 11.40241 -0.11792 2 
126.654 53.561 11.28594 -0.15007 2 
128.299 53.561 11.25934 0.01903 2 
129.944 53.561 11.27774 0.20572 2 
131.589 53.561 11.17694 0.18036 2 
133.234 53.561 11.25615 0.09058 2 
134.879 53.561 11.33536 0.00080 2 
136.523 53.561 11.23441 -0.26205 2 
138.168 53.561 11.13787 -0.28009 2 
139.813 53.561 11.00415 -0.30831 2 
141.458 53.561 11.14727 -0.18305 2 
143.103 53.561 10.99052 -0.04783 2 
144.748 53.561 11.28721 -0.05627 2 
146.393 53.561 11.19912 -0.15113 2 
148.037 53.561 11.15979 -0.21117 2 
149.682 53.561 11.51189 -0.12903 2 
151.327 53.561 0.00000 -0.00000 0 
152.972 53.561 0.00000 -0.00000 0 
-13.159 51.916 0.00000 -0.00000 0 
-11.514 51.916 9.80312 0.62179 2 
-9.869 51.916 9.29369 0.20551 2 
-8.224 51.916 9.29567 0.50673 2 
-6.579 51.916 9.39983 0.69696 2 
-4.935 51.916 9.42981 0.50480 2 
-3.290 51.916 9.30880 0.72633 2 
-1.645 51.916 9.32642 0.92123 2 
0.000 51.916 9.76151 0.81347 2 
1.645 51.916 4.97421 0.05476 2 
3.290 51.916 0.00000 -0.00000 0 
4.935 51.916 0.00000 -0.00000 0 
6.579 51.916 0.00000 -0.00000 0 
8.224 51.916 0.00000 -0.00000 0 
9.869 51.916 0.00000 -0.00000 0 
11.514 51.916 0.00000 -0.00000 0 
13.159 51.916 0.00000 -0.00000 0 
14.804 51.916 0.00000 -0.00000 0 
16.449 51.916 0.00000 -0.00000 0 
18.093 51.916 0.00000 -0.00000 0 
19.738 51.916 0.00000 -0.00000 0 
21.383 51.916 0.00000 -0.00000 0 
23.028 51.916 1.50756 -0.11728 2 
24.673 51.916 2.08863 -0.15169 2 
26.318 51.916 9.95284 0.68390 2 
27.963 51.916 9.91116 1.11956 2 
29.607 51.916 9.97818 0.98474 2 
31.252 51.916 10.01265 0.94452 2 
32.897 51.916 10.01435 1.13776 2 
34.542 51.916 9.96984 1.22726 2 
36.187 51.916 9.76933 0.76766 2 
37.832 51.916 10.13525 0.99354 2 
39.477 51.916 10.19812 1.16247 2 
41.121 51.916 9.60025 0.79336 2 
42.766 51.916 9.89683 1.09602 2 
44.411 51.916 10.15721 0.94422 2 
46.056 51.916 10.14693 1.05510 2 
47.701 51.916 9.92488 1.04580 2 
49.346 51.916 9.95604 1.40803 2 
50.991 51.916 9.87530 1.42711 2 
52.636 51.916 9.93008 1.36374 2 
54.280 51.916 9.96902 0.80941 2 
55.925 51.916 10.07591 1.11911 2 
57.570 51.916 10.07416 1.32115 2 
59.215 51.916 10.41605 1.50321 2 
60.860 51.916 10.19841 1.53605 2 
62.505 51.916 10.44568 1.35077 2 
64.150 51.916 10.40397 1.56486 2 
65.794 51.916 10.06719 1.39491 2 
67.439 51.916 10.30190 1.22422 2 
69.084 51.916 10.47411 1.15370 2 
70.729 51.916 10.59584 1.35579 2 
72.374 51.916 10.80162 1.41636 2 
74.019 51.916 10.69787 1.33499 2 
75.664 51.916 10.82943 1.11967 2 
77.308 51.916 10.56478 1.38111 2 
78.953 51.916 10.65601 1.35787 2 
80.598 51.916 10.65427 1.26318 2 
82.243 51.916 10.65254 1.16848 2 
83.888 51.916 10.72299 1.18755 2 
85.533 51.916 10.79344 1.20662 2 
87.178 51.916 10.54117 0.86898 2 
88.822 51.916 11.11267 1.40057 2 
90.467 51.916 11.07119 1.21288 2 
92.112 51.916 10.91597 1.32742 2 
93.757 51.916 10.72043 1.31115 2 
95.402 51.916 10.96173 1.55706 2 
97.047 51.916 11.17424 1.27057 2 
98.692 51.916 11.55479 0.40874 2 
100.336 51.916 4.68497 0.21813 2 
101.981 51.916 0.00000 -0.00000 0 
103.626 51.916 0.00000 -0.00000 0 
105.271 51.916 0.00000 -0.00000 0 
106.916 51.916 5.64001 0.25992 2 
108.561 51.916 11.44423 0.60831 2 
110.206 51.916 10.69427 0.73082 2 
111.850 51.916 11.43084 0.78582 2 
113.495 51.916 11.03421 0.40132 2 
115.140 51.916 11.49122 0.48426 2 
116.785 51.916 11.15009 0.36929 2 
118.430 51.916 11.06341 0.30351 2 
120.075 51.916 11.27882 0.39187 2 
121.720 51.916 11.10464 0.22132 2 
123.364 51.916 10.94018 0.15260 2 
125.009 51.916 11.21592 0.30757 2 
126.654 51.916 11.32045 0.14200 2 
128.299 51.916 11.14567 0.02930 2 
129.944 51.916 11.34977 -0.30785 2 
131.589 51.916 11.33156 -0.06553 2 
133.234 51.916 11.35357 -0.15779 2 
134.879 51.916 11.37341 -0.41844 2 
136.523 51.916 11.24685 -0.44351 2 
138.168 51.916 11.04341 -0.43599 2 
139.813 51.916 10.93792 -0.50029 2 
141.458 51.916 11.18647 -0.46266 2 
143.103 51.916 11.35992 -0.56219 2 
144.748 51.916 11.18276 -0.79006 2 
146.393 51.916 11.01707 -0.59824 2 
148.037 51.916 11.07247 -0.68852 2 
149.682 51.916 11.42576 -0.71078 2 
151.327 51.916 11.47447 -1.14744 2 
152.972 51.916 0.00000 -0.00000 0 
-13.159 50.271 0.00000 -0.00000 0 
-11.514 50.271 9.76283 0.59748 2 
-9.869 50.271 9.18066 0.30017 2 
-8.224 50.271 9.39920 0.48072 2 
-6.579 50.271 9.40253 0.54395 2 
-4.935 50.271 9.19266 0.47919 2 
-3.290 50.271 9.20167 0.76319 2 
-1.645 50.271 9.27563 0.78327 2 
0.000 50.271 9.55379 0.61819 2 
1.645 50.271 6.84725 0.32561 2 
3.290 50.271 0.00000 -0.00000 0 
4.935 50.271 0.00000 -0.00000 0 
6.579 50.271 0.00000 -0.00000 0 
8.224 50.271 0.00000 -0.00000 0 
9.869 50.271 0.00000 -0.00000 0 
11.514 50.271 0.00000 -0.00000 0 
13.159 50.271 0.00000 -0.00000 0 
14.804 50.271 0.00000 -0.00000 0 
16.449 50.271 0.00000 -0.00000 0 
18.093 50.271 0.00000 -0.00000 0 
19.738 50.271 0.00000 -0.00000 0 
21.383 50.271 0.00000 -0.00000 0 
23.028 50.271 1.96121 -0.09283 2 
24.673 50.271 3.92241 -0.18566 2 
26.318 50.271 10.53311 1.01825 2 
27.963 50.271 9.37227 0.82324 2 
29.607 50.271 9.49259 0.81418 2 
31.252 50.271 9.37400 0.86887 2 
32.897 50.271 9.51339 1.01414 2 
34.542 50.271 9.35172 1.09558 2 
36.187 50.271 9.48112 1.06418 2 
37.832 50.271 9.70739 1.00204 2 
39.477 50.271 9.60842 0.83389 2 
41.121 50.271 9.80296 0.90724 2 
42.766 50.271 9.83827 1.02784 2 
44.411 50.271 9.97008 0.96898 2 
46.056 50.271 9.98835 1.13758 2 
47.701 50.271 9.90283 1.15478 2 
49.346 50.271 9.81562 1.15621 2 
50.991 50.271 9.71792 0.79820 2 
52.636 50.271 9.84752 1.03640 2 
54.280 50.271 9.98728 1.11088 2 
55.925 50.271 9.82766 1.13518 2 
57.570 50.271 9.99445 1.29496 2 
59.215 50.271 10.24971 1.06641 2 
60.860 50.271 10.22255 1.07178 2 
62.505 50.271 10.02289 1.10689 2 
64.150 50.271 10.36955 1.10794 2 
65.794 50.271 10.18595 1.22033 2 
67.439 50.271 10.43034 0.94432 2 
69.084 50.271 10.58647 0.98383 2 
70.729 50.271 10.25174 0.84963 2 
72.374 50.271 10.55758 0.79553 2 
74.019 50.271 10.66903 1.01709 2 
75.664 50.271 10.56323 1.31557 2 
77.308 50.271 10.73832 1.02319 2 
78.953 50.271 10.77537 1.00640 2 
80.598 50.271 10.60296 1.02670 2 
82.243 50.271 10.66970 1.07953 2 
83.888 50.271 10.99827 1.01857 2 
85.533 50.271 10.87850 0.99761 2 
87.178 50.271 10.59946 0.91464 2 
88.822 50.271 11.04218 1.22420 2 
90.467 50.271 11.01065 0.73695 2 
92.112 50.271 10.92675 0.81565 2 
93.757 50.271 10.87407 0.80911 2 
95.402 50.271 11.12560 0.63771 2 
97.047 50.271 11.17579 0.77973 2 
98.692 50.271 11.21141 0.51812 2 
100.336 50.271 5.60571 0.25906 2 
101.981 50.271 0.00000 -0.00000 0 
103.626 50.271 0.00000 -0.00000 0 
105.271 50.271 0.00000 -0.00000 0 
106.916 50.271 5.56557 0.17891 2 
108.561 50.271 11.55290 0.64199 2 
110.206 50.271 10.63158 0.62898 2 
111.850 50.271 11.36214 0.61136 2 
113.495 50.271 10.89865 0.28355 2 
115.140 50.271 11.13623 0.47203 2 
116.785 50.271 11.16510 0.45086 2 
118.430 50.271 11.33918 0.42259 2 
120.075 50.271 11.32211 0.38638 2 
121.720 50.271 11.17773 0.02270 2 
123.364 50.271 10.95566 0.24331 2 
125.009 50.271 11.19989 0.28201 2 
126.654 50.271 11.42831 0.02202 2 
128.299 50.271 11.24444 -0.06837 2 
129.944 50.271 11.15495 -0.23321 2 
131.589 50.271 11.33696 -0.10742 2 
133.234 50.271 11.27752 -0.19230 2 
134.879 50.271 11.19448 -0.32018 2 
136.523 50.271 11.42095 -0.32856 2 
138.168 50.271 11.06050 -0.44685 2 
139.813 50.271 11.04270 -0.67791 2 
141.458 50.271 11.41810 -0.71857 2 
143.103 50.271 11.26522 -0.35376 2 
144.748 50.271 11.25620 -0.47341 2 
146.393 50.271 11.09672 -0.84445 2 
148.037 50.271 10.81135 -0.79329 2 
149.682 50.271 10.96762 -0.65521 2 
151.327 50.271 11.19260 -0.98070 2 
152.972 50.271 0.00000 -0.00000 0 
-13.159 48.626 0.00000 -0.00000 0 
-11.514 48.626 9.72253 0.57317 2 
-9.869 48.626 9.32075 0.30977 2 
-8.224 48.626 9.44041 0.41631 2 
-6.579 48.626 9.27520 0.48523 2 
-4.935 48.626 9.30272 0.35169 2 
-3.290 48.626 9.26657 0.58996 2 
-1.645 48.626 9.32527 0.73178 2 
0.000 48.626 9.27100 0.64950 2 
1.645 48.626 8.72029 0.59645 2 
3.290 48.626 0.00000 -0.00000 0 
4.935 48.626 0.00000 -0.00000 0 
6.579 48.626 0.00000 -0.00000 0 
8.224 48.626 0.00000 -0.00000 0 
9.869 48.626 0.00000 -0.00000 0 
11.514 48.626 0.00000 -0.00000 0 
13.159 48.626 0.00000 -0.00000 0 
14.804 48.626 0.00000 -0.00000 0 
16.449 48.626 0.00000 -0.00000 0 
18.093 48.626 0.00000 -0.00000 0 
19.738 48.626 0.00000 -0.00000 0 
21.383 48.626 0.00000 -0.00000 0 
23.028 48.626 2.05978 0.12456 2 
24.673 48.626 4.81836 0.45452 2 
26.318 48.626 10.54906 0.95746 2 
27.963 48.626 9.36292 1.11847 2 
29.607 48.626 9.59778 1.04093 2 
31.252 48.626 9.38529 0.90931 2 
32.897 48.626 9.57705 1.25999 2 
34.542 48.626 9.60303 1.07978 2 
36.187 48.626 9.52100 1.13304 2 
37.832 48.626 9.41519 1.05024 2 
39.477 48.626 9.57474 1.10984 2 
41.121 48.626 9.70717 1.07294 2 
42.766 48.626 9.84927 1.12237 2 
44.411 48.626 9.93002 1.13767 2 
46.056 48.626 9.81998 1.17622 2 
47.701 48.626 9.74914 1.12526 2 
49.346 48.626 9.84055 1.10974 2 
50.991 48.626 9.92648 1.00402 2 
52.636 48.626 9.78417 1.04642 2 
54.280 48.626 9.82155 0.98355 2 
55.925 48.626 9.87072 0.87146 2 
57.570 48.626 10.22395 1.15148 2 
59.215 48.626 10.18371 1.07029 2 
60.860 48.626 10.41332 1.16790 2 
62.505 48.626 10.21825 1.05943 2 
64.150 48.626 10.24746 1.11047 2 
65.794 48.626 10.23715 1.29500 2 
67.439 48.626 10.46651 1.26614 2 
69.084 48.626 10.52930 1.08191 2 
70.729 48.626 10.70154 1.04425 2 
72.374 48.626 10.80712 0.97873 2 
74.019 48.626 10.67775 1.11708 2 
75.664 48.626 10.70885 1.35186 2 
77.308 48.626 10.36729 1.10214 2 
78.953 48.626 10.54730 1.15051 2 
80.598 48.626 10.65206 1.10558 2 
82.243 48.626 10.87996 1.01446 2 
83.888 48.626 10.82904 1.15462 2 
85.533 48.626 10.84165 0.70481 2 
87.178 48.626 10.94343 1.13644 2 
88.822 48.626 10.72209 0.94432 2 
90.467 48.626 11.09443 0.88507 2 
92.112 48.626 10.88206 0.73606 2 
93.757 48.626 10.97154 1.03795 2 
95.402 48.626 11.07258 0.80888 2 
97.047 48.626 11.28929 0.83805 2 
98.692 48.626 11.29811 0.14517 2 
100.336 48.626 5.64905 0.07259 2 
101.981 48.626 0.00000 -0.00000 0 
103.626 48.626 0.00000 -0.00000 0 
105.271 48.626 0.00000 -0.00000 0 
106.916 48.626 5.64346 0.26583 2 
108.561 48.626 12.00700 0.39352 2 
110.206 48.626 11.18682 0.62576 2 
111.850 48.626 11.06500 0.46671 2 
113.495 48.626 11.04285 0.42428 2 
115.140 48.626 11.28699 0.45072 2 
116.785 48.626 11.17376 0.38669 2 
118.430 48.626 11.44942 0.58357 2 
120.075 48.626 11.42973 0.60619 2 
121.720 48.626 11.43077 0.03634 2 
123.364 48.626 11.47488 0.10408 2 
125.009 48.626 11.44287 -0.18696 2 
126.654 48.626 11.35659 -0.23620 2 
128.299 48.626 11.32047 -0.16151 2 
129.944 48.626 10.96461 -0.23465 2 
131.589 48.626 11.06877 -0.22027 2 
133.234 48.626 11.16358 -0.17370 2 
134.879 48.626 11.25603 -0.33084 2 
136.523 48.626 11.47802 -0.32133 2 
138.168 48.626 10.94946 -0.35881 2 
139.813 48.626 11.24090 -0.58511 2 
141.458 48.626 11.52361 -0.50689 2 
143.103 48.626 11.22382 -0.46464 2 
144.748 48.626 11.20095 -0.65139 2 
146.393 48.626 11.34817 -0.60805 2 
148.037 48.626 10.87891 -0.72330 2 
149.682 48.626 11.19102 -0.81529 2 
151.327 48.626 10.83716 -1.13265 2 
152.972 48.626 0.00000 -0.00000 0 
-13.159 46.981 0.00000 -0.00000 0 
-11.514 46.981 9.35525 0.32668 2 
-9.869 46.981 9.14531 0.46270 2 
-8.224 46.981 9.24224 0.43855 2 
-6.579 46.981 9.28376 0.48443 2 
-4.935 46.981 9.30032 0.46928 2 
-3.290 46.981 9.19719 0.57172 2 
-1.645 46.981 9.34334 0.61741 2 
0.000 46.981 9.09208 0.65896 2 
1.645 46.981 9.58908 0.48063 2 
3.290 46.981 0.00000 -0.00000 0 
4.935 46.981 0.00000 -0.00000 0 
6.579 46.981 0.00000 -0.00000 0 
8.224 46.981 0.00000 -0.00000 0 
9.869 46.981 0.00000 -0.00000 0 
11.514 46.981 0.00000 -0.00000 0 
13.159 46.981 0.00000 -0.00000 0 
14.804 46.981 0.00000 -0.00000 0 
16.449 46.981 0.00000 -0.00000 0 
18.093 46.981 0.00000 -0.00000 0 
19.738 46.981 0.00000 -0.00000 0 
21.383 46.981 0.00000 -0.00000 0 
23.028 46.981 2.15836 0.34194 2 
24.673 46.981 5.71431 1.09470 2 
26.318 46.981 10.17233 0.90228 2 
27.963 46.981 9.25964 1.14282 2 
29.607 46.981 9.35631 1.13424 2 
31.252 46.981 9.53665 1.00409 2 
32.897 46.981 9.62193 1.16717 2 
34.542 46.981 9.68869 0.93492 2 
36.187 46.981 9.50476 1.05086 2 
37.832 46.981 9.34110 1.21125 2 
39.477 46.981 9.47397 1.27845 2 
41.121 46.981 9.47882 1.11625 2 
42.766 46.981 9.95559 1.03267 2 
44.411 46.981 9.87305 1.19941 2 
46.056 46.981 9.61091 1.17316 2 
47.701 46.981 9.70575 1.20093 2 
49.346 46.981 9.95361 1.12078 2 
50.991 46.981 9.99785 1.07972 2 
52.636 46.981 9.84919 1.37558 2 
54.280 46.981 9.87407 1.33069 2 
55.925 46.981 10.22514 0.99724 2 
57.570 46.981 10.32728 1.25717 2 
59.215 46.981 10.08677 1.25998 2 
60.860 46.981 10.11399 1.32444 2 
62.505 46.981 10.24933 1.36950 2 
64.150 46.981 10.16077 1.24026 2 
65.794 46.981 10.47329 1.19923 2 
67.439 46.981 10.47195 1.01012 2 
69.084 46.981 10.51388 0.97591 2 
70.729 46.981 10.64899 1.22519 2 
72.374 46.981 10.77032 1.00880 2 
74.019 46.981 10.65092 1.11016 2 
75.664 46.981 10.72291 1.08597 2 
77.308 46.981 10.50390 1.03960 2 
78.953 46.981 10.49782 1.22604 2 
80.598 46.981 10.78933 1.27796 2 
82.243 46.981 10.73890 0.98094 2 
83.888 46.981 10.75421 1.18988 2 
85.533 46.981 10.88479 0.87891 2 
87.178 46.981 10.93120 0.79748 2 
88.822 46.981 10.88108 0.67418 2 
90.467 46.981 10.96581 0.86645 2 
92.112 46.981 10.79786 0.98104 2 
93.757 46.981 10.95251 0.95547 2 
95.402 46.981 10.81365 0.99317 2 
97.047 46.981 11.20127 0.68611 2 
98.692 46.981 11.09677 0.73250 2 
100.336 46.981 5.54839 0.36625 2 
101.981 46.981 0.00000 -0.00000 0 
103.626 46.981 0.00000 -0.00000 0 
105.271 46.981 0.00000 -0.00000 0 
106.916 46.981 4.86384 0.07984 2 
108.561 46.981 9.72768 0.15968 2 
110.206 46.981 11.86529 0.67938 2 
111.850 46.981 11.23974 0.72695 2 
113.495 46.981 11.12518 0.71775 2 
115.140 46.981 11.12750 0.45652 2 
116.785 46.981 11.28122 0.38197 2 
118.430 46.981 11.40541 0.32334 2 
120.075 46.981 11.35640 0.60544 2 
121.720 46.981 11.08906 0.40137 2 
123.364 46.981 11.27256 -0.03479 2 
125.009 46.981 11.38957 -0.21104 2 
126.654 46.981 11.47214 -0.08968 2 
128.299 46.981 11.50181 0.17992 2 
129.944 46.981 11.19950 0.06058 2 
131.589 46.981 11.31942 -0.10388 2 
133.234 46.981 11.16132 -0.08507 2 
134.879 46.981 11.10956 -0.19957 2 
136.523 46.981 11.19603 -0.36749 2 
138.168 46.981 11.22688 -0.55887 2 
139.813 46.981 11.36504 -0.29151 2 
141.458 46.981 11.32394 -0.48766 2 
143.103 46.981 11.28987 -0.29442 2 
144.748 46.981 11.28201 -0.79907 2 
146.393 46.981 10.95700 -0.54844 2 
148.037 46.981 11.07082 -0.62629 2 
149.682 46.981 11.36121 -0.96644 2 
151.327 46.981 11.15318 -1.03062 2 
152.972 46.981 0.00000 -0.00000 0 
-13.159 45.336 0.00000 -0.00000 0 
-11.514 45.336 9.33603 0.58052 2 
-9.869 45.336 9.15427 0.49932 2 
-8.224 45.336 9.33430 0.51591 2 
-6.579 45.336 9.17276 0.37245 2 
-4.935 45.336 9.12448 0.49080 2 
-3.290 45.336 9.05351 0.63344 2 
-1.645 45.336 9.22027 0.47184 2 
0.000 45.336 9.24756 0.59015 2 
1.645 45.336 9.64858 0.85726 2 
3.290 45.336 5.17849 0.39993 2 
4.935 45.336 0.00000 -0.00000 0 
6.579 45.336 0.00000 -0.00000 0 
8.224 45.336 0.00000 -0.00000 0 
9.869 45.336 0.00000 -0.00000 0 
11.514 45.336 0.00000 -0.00000 0 
13.159 45.336 0.00000 -0.00000 0 
14.804 45.336 0.00000 -0.00000 0 
16.449 45.336 0.00000 -0.00000 0 
18.093 45.336 0.00000 -0.00000 0 
19.738 45.336 0.00000 -0.00000 0 
21.383 45.336 0.00000 -0.00000 0 
23.028 45.336 2.25693 0.55933 2 
24.673 45.336 6.61026 1.73488 2 
26.318 45.336 9.93532 0.93242 2 
27.963 45.336 9.23926 0.99917 2 
29.607 45.336 9.42136 1.08572 2 
31.252 45.336 9.42261 1.15107 2 
32.897 45.336 9.48903 0.93258 2 
34.542 45.336 9.60315 0.93316 2 
36.187 45.336 9.65093 1.17063 2 
37.832 45.336 9.62242 1.28726 2 
39.477 45.336 9.42530 1.24202 2 
41.121 45.336 9.54927 1.16750 2 
42.766 45.336 9.75865 1.38042 2 
44.411 45.336 9.77316 1.08525 2 
46.056 45.336 9.80718 1.06034 2 
47.701 45.336 9.86494 1.31187 2 
49.346 45.336 9.99992 1.20128 2 
50.991 45.336 10.06923 1.15541 2 
52.636 45.336 9.73741 1.42807 2 
54.280 45.336 9.95181 1.30115 2 
55.925 45.336 10.45578 1.07511 2 
57.570 45.336 10.13487 1.45661 2 
59.215 45.336 9.86308 1.45138 2 
60.860 45.336 10.03596 1.12028 2 
62.505 45.336 10.10324 1.52035 2 
64.150 45.336 10.16718 1.51609 2 
65.794 45.336 10.44464 1.30986 2 
67.439 45.336 10.28512 1.13829 2 
69.084 45.336 10.31145 1.18582 2 
70.729 45.336 10.25440 1.42530 2 
72.374 45.336 10.50028 1.25161 2 
74.019 45.336 10.61540 1.01609 2 
75.664 45.336 10.58554 1.16664 2 
77.308 45.336 10.64051 0.97706 2 
78.953 45.336 10.68062 1.14156 2 
80.598 45.336 10.63227 1.25823 2 
82.243 45.336 10.72679 0.97376 2 
83.888 45.336 10.93442 1.41797 2 
85.533 45.336 10.92792 1.05302 2 
87.178 45.336 10.86772 1.19700 2 
88.822 45.336 11.06501 1.34827 2 
90.467 45.336 10.73078 0.74882 2 
92.112 45.336 10.95320 1.13458 2 
93.757 45.336 11.21250 1.14167 2 
95.402 45.336 11.05786 0.99870 2 
97.047 45.336 11.15607 0.89261 2 
98.692 45.336 11.08743 0.79560 2 
100.336 45.336 5.50935 0.50879 2 
101.981 45.336 -0.06873 0.22199 2 
103.626 45.336 0.00000 -0.00000 0 
105.271 45.336 0.00000 -0.00000 0 
106.916 45.336 3.35690 0.26279 2 
108.561 45.336 8.02698 0.39890 2 
110.206 45.336 11.90709 0.76703 2 
111.850 45.336 11.40505 0.72252 2 
113.495 45.336 11.02080 0.57650 2 
115.140 45.336 11.21154 0.52702 2 
116.785 45.336 11.38995 0.57848 2 
118.430 45.336 11.25792 0.25449 2 
120.075 45.336 11.22365 0.32045 2 
121.720 45.336 11.07718 0.22913 2 
123.364 45.336 11.24741 0.03927 2 
125.009 45.336 11.26556 -0.03345 2 
126.654 45.336 11.42781 0.06001 2 
128.299 45.336 11.55902 0.04488 2 
129.944 45.336 11.45541 0.18906 2 
131.589 45.336 11.63864 -0.15215 2 
133.234 45.336 11.36823 -0.13933 2 
134.879 45.336 11.19939 -0.11171 2 
136.523 45.336 11.39775 -0.24238 2 
138.168 45.336 11.46472 -0.31470 2 
139.813 45.336 11.51780 -0.40296 2 
141.458 45.336 11.41052 -0.43715 2 
143.103 45.336 11.29063 -0.37262 2 
144.748 45.336 11.31710 -0.94337 2 
146.393 45.336 11.19775 -0.94862 2 
148.037 45.336 11.28463 -0.56646 2 
149.682 45.336 11.25252 -1.01166 2 
151.327 45.336 11.25657 -0.73594 2 
152.972 45.336 0.00000 -0.00000 0 
-13.159 43.692 0.00000 -0.00000 0 
-11.514 43.692 9.50628 0.35641 2 
-9.869 43.692 9.28977 0.31121 2 
-8.224 43.692 9.26214 0.52042 2 
-6.579 43.692 9.08463 0.57749 2 
-4.935 43.692 9.37428 0.40649 2 
-3.290 43.692 9.13969 0.67039 2 
-1.645 43.692 9.08725 0.64821 2 
0.000 43.692 9.03479 0.84814 2 
1.645 43.692 9.44153 0.74426 2 
3.290 43.692 5.00854 0.35430 2 
4.935 43.692 0.00000 -0.00000 0 
6.579 43.692 0.00000 -0.00000 0 
8.224 43.692 0.00000 -0.00000 0 
9.869 43.692 0.00000 -0.00000 0 
11.514 43.692 0.00000 -0.00000 0 
13.159 43.692 0.00000 -0.00000 0 
14.804 43.692 0.00000 -0.00000 0 
16.449 43.692 0.00000 -0.00000 0 
18.093 43.692 0.00000 -0.00000 0 
19.738 43.692 0.00000 -0.00000 0 
21.383 43.692 0.00000 -0.00000 0 
23.028 43.692 1.67227 -0.50585 2 
24.673 43.692 8.12198 1.28593 2 
26.318 43.692 9.46852 1.21841 2 
27.963 43.692 9.39856 1.16281 2 
29.607 43.692 9.43729 1.17832 2 
31.252 43.692 9.41046 1.26544 2 
32.897 43.692 9.51910 1.08984 2 
34.542 43.692 9.57184 1.06387 2 
36.187 43.692 9.69106 1.34067 2 
37.832 43.692 9.69847 1.18549 2 
39.477 43.692 9.51594 1.18426 2 
41.121 43.692 9.77078 1.18705 2 
42.766 43.692 9.55381 1.30186 2 
44.411 43.692 9.69933 1.30295 2 
46.056 43.692 10.08150 1.08420 2 
47.701 43.692 10.11229 1.29053 2 
49.346 43.692 10.03579 1.28383 2 
50.991 43.692 9.85832 1.12250 2 
52.636 43.692 9.82540 1.12882 2 
54.280 43.692 10.10519 1.15970 2 
55.925 43.692 10.32538 1.15785 2 
57.570 43.692 10.25391 1.33406 2 
59.215 43.692 10.19047 1.40655 2 
60.860 43.692 10.40042 1.25479 2 
62.505 43.692 10.36726 1.38777 2 
64.150 43.692 10.56726 1.40528 2 
65.794 43.692 10.59387 1.30129 2 
67.439 43.692 10.09629 1.35592 2 
69.084 43.692 10.36099 1.06737 2 
70.729 43.692 10.30731 1.46860 2 
72.374 43.692 10.49929 0.93063 2 
74.019 43.692 10.62760 1.15549 2 
75.664 43.692 10.58882 1.06087 2 
77.308 43.692 10.63011 1.19760 2 
78.953 43.692 10.67429 1.40120 2 
80.598 43.692 10.68375 1.21948 2 
82.243 43.692 10.86622 1.33919 2 
83.888 43.692 10.88025 1.03804 2 
85.533 43.692 11.05111 1.26978 2 
87.178 43.692 10.86152 1.07243 2 
88.822 43.692 10.98816 1.24996 2 
90.467 43.692 11.01933 0.91437 2 
92.112 43.692 11.11467 1.02792 2 
93.757 43.692 11.32619 1.01446 2 
95.402 43.692 11.01868 1.09870 2 
97.047 43.692 11.04798 1.18813 2 
98.692 43.692 11.17861 1.17106 2 
100.336 43.692 5.52057 0.80752 2 
101.981 43.692 -0.13746 0.44397 2 
103.626 43.692 0.00000 -0.00000 0 
105.271 43.692 0.00000 -0.00000 0 
106.916 43.692 1.84997 0.44573 2 
108.561 43.692 3.69993 0.89147 2 
110.206 43.692 11.40790 0.79673 2 
111.850 43.692 11.25014 0.75903 2 
113.495 43.692 11.52556 0.35010 2 
115.140 43.692 11.65527 0.49299 2 
116.785 43.692 11.52827 0.57647 2 
118.430 43.692 11.27231 0.24675 2 
120.075 43.692 11.23297 0.44658 2 
121.720 43.692 11.21056 -0.03792 2 
123.364 43.692 11.41838 -0.01256 2 
125.009 43.692 11.40501 0.04047 2 
126.654 43.692 11.69069 -0.02327 2 
128.299 43.692 11.61624 -0.09016 2 
129.944 43.692 11.22839 -0.08540 2 
131.589 43.692 11.25706 -0.13187 2 
133.234 43.692 11.57513 -0.19360 2 
134.879 43.692 11.38584 -0.06573 2 
136.523 43.692 11.54962 -0.34018 2 
138.168 43.692 11.50937 -0.58753 2 
139.813 43.692 11.37408 -0.84300 2 
141.458 43.692 11.51173 -0.22818 2 
143.103 43.692 11.48720 -0.31416 2 
144.748 43.692 11.42352 -0.90298 2 
146.393 43.692 11.34641 -1.20426 2 
148.037 43.692 11.21345 -0.75265 2 
149.682 43.692 11.14485 -0.87666 2 
151.327 43.692 11.52040 -0.74035 2 
152.972 43.692 0.00000 -0.00000 0 
-13.159 42.047 0.00000 -0.00000 0 
-11.514 42.047 9.26767 0.14358 2 
-9.869 42.047 9.11755 0.36550 2 
-8.224 42.047 9.31720 0.51190 2 
-6.579 42.047 9.25154 0.35654 2 
-4.935 42.047 9.18726 0.69056 2 
-3.290 42.047 9.03284 0.68160 2 
-1.645 42.047 9.28800 0.47768 2 
0.000 42.047 9.03797 0.70546 2 
1.645 42.047 9.67445 0.64345 2 
3.290 42.047 4.62064 0.28753 2 
4.935 42.047 0.00000 -0.00000 0 
6.579 42.047 0.00000 -0.00000 0 
8.224 42.047 0.00000 -0.00000 0 
9.869 42.047 0.00000 -0.00000 0 
11.514 42.047 0.00000 -0.00000 0 
13.159 42.047 0.00000 -0.00000 0 
14.804 42.047 0.00000 -0.00000 0 
16.449 42.047 0.00000 -0.00000 0 
18.093 42.047 0.00000 -0.00000 0 
19.738 42.047 0.00000 -0.00000 0 
21.383 42.047 0.00000 -0.00000 0 
23.028 42.047 3.31606 0.09083 2 
24.673 42.047 9.63371 0.83698 2 
26.318 42.047 9.15135 1.39909 2 
27.963 42.047 9.42287 1.24957 2 
29.607 42.047 9.29214 1.16326 2 
31.252 42.047 9.50015 1.13704 2 
32.897 42.047 9.47214 1.09827 2 
34.542 42.047 9.33673 1.21694 2 
36.187 42.047 9.51247 1.18789 2 
37.832 42.047 9.53472 1.13585 2 
39.477 42.047 9.65189 1.00763 2 
41.121 42.047 9.72510 1.03942 2 
42.766 42.047 9.85944 1.01298 2 
44.411 42.047 9.75057 1.27896 2 
46.056 42.047 9.81865 1.29487 2 
47.701 42.047 10.04463 1.28262 2 
49.346 42.047 10.00164 1.38773 2 
50.991 42.047 9.82686 1.42163 2 
52.636 42.047 9.91670 1.29115 2 
54.280 42.047 10.02007 1.02511 2 
55.925 42.047 10.02312 1.11408 2 
57.570 42.047 10.11617 1.44877 2 
59.215 42.047 10.14719 1.44004 2 
60.860 42.047 10.12520 1.25333 2 
62.505 42.047 10.32424 1.38405 2 
64.150 42.047 10.31126 1.27452 2 
65.794 42.047 10.50273 1.27072 2 
67.439 42.047 10.31889 1.32461 2 
69.084 42.047 10.44222 1.23623 2 
70.729 42.047 10.42944 1.29561 2 
72.374 42.047 10.33900 0.93059 2 
74.019 42.047 10.44675 1.10876 2 
75.664 42.047 10.64421 1.04293 2 
77.308 42.047 10.58691 1.40697 2 
78.953 42.047 10.63288 1.26717 2 
80.598 42.047 10.85413 1.13337 2 
82.243 42.047 10.82371 0.97151 2 
83.888 42.047 10.82608 0.65810 2 
85.533 42.047 10.92959 0.99474 2 
87.178 42.047 10.87697 1.09826 2 
88.822 42.047 10.92204 1.26491 2 
90.467 42.047 11.02901 1.00461 2 
92.112 42.047 11.22281 1.33572 2 
93.757 42.047 10.95688 0.75770 2 
95.402 42.047 11.12528 0.87231 2 
97.047 42.047 11.10839 1.10530 2 
98.692 42.047 10.97627 0.94242 2 
100.336 42.047 11.19523 1.05786 2 
101.981 42.047 -0.00286 1.13204 2 
103.626 42.047 0.00000 -0.00000 0 
105.271 42.047 0.00000 -0.00000 0 
106.916 42.047 0.03825 -0.13207 2 
108.561 42.047 0.07650 -0.26413 2 
110.206 42.047 11.76758 0.47084 2 
111.850 42.047 11.57029 0.80470 2 
113.495 42.047 11.51611 0.37596 2 
115.140 42.047 11.47337 0.48790 2 
116.785 42.047 11.31239 0.31325 2 
118.430 42.047 11.49295 0.26294 2 
120.075 42.047 11.32103 0.33690 2 
121.720 42.047 11.39860 -0.02235 2 
123.364 42.047 11.50759 -0.00496 2 
125.009 42.047 11.45541 -0.03230 2 
126.654 42.047 11.71880 0.13223 2 
128.299 42.047 11.65905 0.04689 2 
129.944 42.047 11.27652 -0.01792 2 
131.589 42.047 11.27749 -0.08602 2 
133.234 42.047 11.48255 -0.13174 2 
134.879 42.047 11.25726 -0.43573 2 
136.523 42.047 11.50463 -0.44157 2 
138.168 42.047 11.36949 -0.66142 2 
139.813 42.047 11.18234 -0.64886 2 
141.458 42.047 11.26365 -0.44877 2 
143.103 42.047 11.58363 -0.58538 2 
144.748 42.047 11.56474 -0.63154 2 
146.393 42.047 11.44783 -0.67688 2 
148.037 42.047 11.23087 -0.79973 2 
149.682 42.047 11.15644 -0.97426 2 
151.327 42.047 11.72007 -1.16862 2 
152.972 42.047 0.00000 -0.00000 0 
-13.159 40.402 0.00000 -0.00000 0 
-11.514 40.402 9.11506 0.58093 2 
-9.869 40.402 9.09013 0.54860 2 
-8.224 40.402 9.33331 0.65206 2 
-6.579 40.402 9.17763 0.40658 2 
-4.935 40.402 9.03966 0.55733 2 
-3.290 40.402 8.94518 0.56774 2 
-1.645 40.402 9.26841 0.53272 2 
0.000 40.402 9.05594 0.53464 2 
1.645 40.402 9.55312 0.56626 2 
3.290 40.402 9.25504 0.92736 2 
4.935 40.402 0.00000 -0.00000 0 
6.579 40.402 0.00000 -0.00000 0 
8.224 40.402 0.00000 -0.00000 0 
9.869 40.402 0.00000 -0.00000 0 
11.514 40.402 0.00000 -0.00000 0 
13.159 40.402 0.00000 -0.00000 0 
14.804 40.402 0.00000 -0.00000 0 
16.449 40.402 0.00000 -0.00000 0 
18.093 40.402 0.00000 -0.00000 0 
19.738 40.402 0.00000 -0.00000 0 
21.383 40.402 0.00000 -0.00000 0 
23.028 40.402 4.95986 0.68750 2 
24.673 40.402 9.91972 1.37501 2 
26.318 40.402 9.12255 1.26129 2 
27.963 40.402 9.50285 1.17703 2 
29.607 40.402 9.49649 1.07894 2 
31.252 40.402 9.51380 1.25152 2 
32.897 40.402 9.36303 1.38312 2 
34.542 40.402 9.24053 1.21113 2 
36.187 40.402 9.47914 1.20731 2 
37.832 40.402 9.82449 1.34691 2 
39.477 40.402 9.64697 1.10098 2 
41.121 40.402 9.38300 1.34041 2 
42.766 40.402 9.78446 1.27065 2 
44.411 40.402 9.61495 1.37233 2 
46.056 40.402 9.79851 1.25303 2 
47.701 40.402 9.79360 1.50789 2 
49.346 40.402 9.82601 1.24752 2 
50.991 40.402 10.00893 1.22034 2 
52.636 40.402 9.94041 1.33473 2 
54.280 40.402 10.10276 1.17837 2 
55.925 40.402 10.01779 1.41127 2 
57.570 40.402 10.06911 1.44936 2 
59.215 40.402 10.24161 1.46127 2 
60.860 40.402 10.08563 1.34177 2 
62.505 40.402 10.30031 1.28338 2 
64.150 40.402 10.18545 1.13731 2 
65.794 40.402 10.31285 1.48049 2 
67.439 40.402 10.44775 1.50619 2 
69.084 40.402 10.46824 1.36801 2 
70.729 40.402 10.62163 1.36326 2 
72.374 40.402 10.60594 1.12578 2 
74.019 40.402 10.36303 1.15071 2 
75.664 40.402 10.76404 1.45273 2 
77.308 40.402 10.67382 1.43537 2 
78.953 40.402 10.57981 1.09241 2 
80.598 40.402 10.57914 0.92653 2 
82.243 40.402 10.95031 0.86444 2 
83.888 40.402 10.60487 1.22359 2 