TITLE = "B00003"
VARIABLES = "X [mm]", "Y [mm]", "Vx [m/s]", "Vy [m/s]", "Flag"
ZONE T="Frame 1", I=102, J=77, F=POINT
-13.159 53.561 0.00000 -0.00000 0 
-11.514 53.561 9.54744 0.14442 2 
-9.869 53.561 9.26365 -0.07652 2 
-8.224 53.561 9.53826 0.07088 2 
-6.579 53.561 9.32938 0.03470 2 
-4.935 53.561 9.16165 -0.10044 2 
-3.290 53.561 9.19073 -0.09937 2 
-1.645 53.561 9.30343 0.10876 2 
0.000 53.561 9.98074 0.14510 2 
1.645 53.561 4.96812 -0.00420 2 
3.290 53.561 0.00000 -0.00000 0 
4.935 53.561 0.00000 -0.00000 0 
6.579 53.561 0.00000 -0.00000 0 
8.224 53.561 0.00000 -0.00000 0 
9.869 53.561 0.00000 -0.00000 0 
11.514 53.561 0.00000 -0.00000 0 
13.159 53.561 0.00000 -0.00000 0 
14.804 53.561 0.00000 -0.00000 0 
16.449 53.561 0.00000 -0.00000 0 
18.093 53.561 0.00000 -0.00000 0 
19.738 53.561 0.00000 -0.00000 0 
21.383 53.561 0.00000 -0.00000 0 
23.028 53.561 3.23048 0.00667 2 
24.673 53.561 6.46097 0.01334 2 
26.318 53.561 9.69145 0.02001 2 
27.963 53.561 9.31158 -0.03314 2 
29.607 53.561 9.35584 -0.05419 2 
31.252 53.561 9.40010 -0.07523 2 
32.897 53.561 9.44436 -0.09628 2 
34.542 53.561 9.19943 0.01697 2 
36.187 53.561 9.31889 -0.09290 2 
37.832 53.561 9.37000 -0.08347 2 
39.477 53.561 9.42112 -0.07403 2 
41.121 53.561 9.47223 -0.06460 2 
42.766 53.561 9.39512 0.01927 2 
44.411 53.561 9.50919 0.16218 2 
46.056 53.561 9.65109 0.15073 2 
47.701 53.561 9.70999 0.29504 2 
49.346 53.561 9.55783 0.27669 2 
50.991 53.561 9.40968 0.13025 2 
52.636 53.561 9.63950 0.19106 2 
54.280 53.561 9.64442 0.16454 2 
55.925 53.561 9.68765 0.25698 2 
57.570 53.561 9.53973 0.32714 2 
59.215 53.561 9.48188 0.34235 2 
60.860 53.561 9.66085 0.24952 2 
62.505 53.561 9.51504 0.16836 2 
64.150 53.561 9.45405 0.28702 2 
65.794 53.561 9.44989 0.25779 2 
67.439 53.561 9.80903 0.14361 2 
69.084 53.561 9.69002 0.08886 2 
70.729 53.561 9.57101 0.03410 2 
72.374 53.561 9.64002 0.24398 2 
74.019 53.561 9.67313 0.00568 2 
75.664 53.561 9.71179 0.00687 2 
77.308 53.561 9.75044 0.00806 2 
78.953 53.561 9.78910 0.00926 2 
80.598 53.561 9.62285 0.12781 2 
82.243 53.561 9.74341 0.12863 2 
83.888 53.561 9.65601 0.19759 2 
85.533 53.561 9.43825 0.34360 2 
87.178 53.561 9.71405 0.19205 2 
88.822 53.561 9.80444 0.35024 2 
90.467 53.561 9.39335 0.27390 2 
92.112 53.561 9.45236 0.26183 2 
93.757 53.561 9.42926 0.20775 2 
95.402 53.561 9.54203 0.18946 2 
97.047 53.561 9.63675 0.15075 2 
98.692 53.561 9.68342 0.31314 2 
100.336 53.561 4.84171 0.15657 2 
101.981 53.561 0.00000 -0.00000 0 
103.626 53.561 0.00000 -0.00000 0 
105.271 53.561 0.00000 -0.00000 0 
106.916 53.561 0.00000 -0.00000 0 
108.561 53.561 0.00000 -0.00000 0 
110.206 53.561 2.37643 0.04722 2 
111.850 53.561 4.75285 0.09443 2 
113.495 53.561 7.12928 0.14165 2 
115.140 53.561 9.50570 0.18887 2 
116.785 53.561 9.57007 0.14906 2 
118.430 53.561 9.63375 0.20478 2 
120.075 53.561 9.58001 0.07296 2 
121.720 53.561 9.74878 0.06541 2 
123.364 53.561 9.87433 0.06871 2 
125.009 53.561 9.56575 0.22070 2 
126.654 53.561 9.68097 0.05258 2 
128.299 53.561 9.52658 0.23297 2 
129.944 53.561 9.56983 0.12966 2 
131.589 53.561 9.82762 0.08403 2 
133.234 53.561 9.64870 0.02840 2 
134.879 53.561 9.48911 -0.01554 2 
136.523 53.561 9.86032 0.14413 2 
138.168 53.561 9.55367 0.17473 2 
139.813 53.561 9.64716 0.19202 2 
141.458 53.561 9.64881 0.11066 2 
143.103 53.561 9.58196 0.09145 2 
144.748 53.561 9.65587 0.15689 2 
146.393 53.561 9.59567 0.14317 2 
148.037 53.561 9.54464 -0.00411 2 
149.682 53.561 9.98462 0.10692 2 
151.327 53.561 9.72132 -0.23840 2 
152.972 53.561 0.00000 -0.00000 0 
-13.159 51.916 0.00000 -0.00000 0 
-11.514 51.916 9.72975 0.07087 2 
-9.869 51.916 9.29216 -0.17200 2 
-8.224 51.916 9.45705 0.17839 2 
-6.579 51.916 9.37265 -0.02145 2 
-4.935 51.916 9.23083 0.06298 2 
-3.290 51.916 9.36651 -0.10492 2 
-1.645 51.916 9.32794 0.14868 2 
0.000 51.916 9.86089 0.04059 2 
1.645 51.916 7.34458 0.00376 2 
3.290 51.916 0.00000 -0.00000 0 
4.935 51.916 0.00000 -0.00000 0 
6.579 51.916 0.00000 -0.00000 0 
8.224 51.916 0.00000 -0.00000 0 
9.869 51.916 0.00000 -0.00000 0 
11.514 51.916 0.00000 -0.00000 0 
13.159 51.916 0.00000 -0.00000 0 
14.804 51.916 0.00000 -0.00000 0 
16.449 51.916 0.00000 -0.00000 0 
18.093 51.916 0.00000 -0.00000 0 
19.738 51.916 0.00000 -0.00000 0 
21.383 51.916 0.00000 -0.00000 0 
23.028 51.916 3.29374 0.09930 2 
24.673 51.916 6.58749 0.19860 2 
26.318 51.916 9.88123 0.29790 2 
27.963 51.916 9.27537 0.36559 2 
29.607 51.916 9.51921 0.29698 2 
31.252 51.916 9.41075 0.19017 2 
32.897 51.916 9.74909 0.25249 2 
34.542 51.916 9.49361 0.38911 2 
36.187 51.916 9.64868 0.42222 2 
37.832 51.916 9.48129 0.52510 2 
39.477 51.916 9.46620 0.50344 2 
41.121 51.916 9.41807 0.42100 2 
42.766 51.916 9.39015 0.65590 2 
44.411 51.916 9.49621 0.14791 2 
46.056 51.916 9.40926 0.35726 2 
47.701 51.916 9.53414 0.25258 2 
49.346 51.916 9.51455 0.45935 2 
50.991 51.916 9.46584 0.26659 2 
52.636 51.916 9.73294 0.30133 2 
54.280 51.916 9.44402 0.18369 2 
55.925 51.916 9.85605 0.20092 2 
57.570 51.916 9.44450 0.42253 2 
59.215 51.916 9.27004 0.28966 2 
60.860 51.916 9.60156 0.43200 2 
62.505 51.916 9.80713 0.13273 2 
64.150 51.916 9.42799 0.06684 2 
65.794 51.916 9.45176 0.31051 2 
67.439 51.916 9.69418 0.37563 2 
69.084 51.916 9.53697 0.30192 2 
70.729 51.916 9.84867 0.04338 2 
72.374 51.916 9.83827 0.39594 2 
74.019 51.916 9.61103 0.37156 2 
75.664 51.916 9.52619 0.21785 2 
77.308 51.916 9.34411 0.16567 2 
78.953 51.916 9.59984 0.37592 2 
80.598 51.916 9.66723 0.22775 2 
82.243 51.916 9.66388 0.22588 2 
83.888 51.916 9.49059 0.48142 2 
85.533 51.916 9.51471 0.18019 2 
87.178 51.916 9.68914 0.11547 2 
88.822 51.916 9.64050 0.46687 2 
90.467 51.916 9.46782 0.55923 2 
92.112 51.916 9.63477 0.39894 2 
93.757 51.916 9.67291 0.56394 2 
95.402 51.916 9.43300 0.52130 2 
97.047 51.916 9.46275 0.30370 2 
98.692 51.916 9.62827 0.26614 2 
100.336 51.916 4.81414 0.13307 2 
101.981 51.916 0.00000 -0.00000 0 
103.626 51.916 0.00000 -0.00000 0 
105.271 51.916 0.00000 -0.00000 0 
106.916 51.916 0.00000 -0.00000 0 
108.561 51.916 0.00000 -0.00000 0 
110.206 51.916 5.35276 0.25516 2 
111.850 51.916 7.49493 0.18244 2 
113.495 51.916 9.63709 0.10972 2 
115.140 51.916 9.60577 0.19324 2 
116.785 51.916 9.63149 0.06538 2 
118.430 51.916 9.70948 0.23247 2 
120.075 51.916 9.47105 0.28555 2 
121.720 51.916 9.49602 -0.00016 2 
123.364 51.916 9.72042 0.08447 2 
125.009 51.916 9.64916 0.35328 2 
126.654 51.916 9.75954 0.34354 2 
128.299 51.916 9.61560 0.14647 2 
129.944 51.916 9.63254 0.28587 2 
131.589 51.916 9.83013 0.48781 2 
133.234 51.916 9.70834 0.28737 2 
134.879 51.916 9.83661 0.29968 2 
136.523 51.916 9.71469 0.27868 2 
138.168 51.916 9.77470 0.21409 2 
139.813 51.916 9.66186 0.43508 2 
141.458 51.916 9.83749 0.27003 2 
143.103 51.916 9.57855 0.39670 2 
144.748 51.916 9.65052 0.34565 2 
146.393 51.916 9.93184 0.27400 2 
148.037 51.916 9.82509 0.22251 2 
149.682 51.916 9.66439 0.43760 2 
151.327 51.916 9.69371 0.19711 2 
152.972 51.916 0.00000 -0.00000 0 
-13.159 50.271 0.00000 -0.00000 0 
-11.514 50.271 9.83276 -0.35772 2 
-9.869 50.271 9.30972 -0.25152 2 
-8.224 50.271 9.33159 0.04727 2 
-6.579 50.271 9.41593 -0.07760 2 
-4.935 50.271 9.32998 -0.11263 2 
-3.290 50.271 9.51402 -0.03892 2 
-1.645 50.271 9.27590 0.04832 2 
0.000 50.271 9.50767 -0.01845 2 
1.645 50.271 9.72104 0.01173 2 
3.290 50.271 0.00000 -0.00000 0 
4.935 50.271 0.00000 -0.00000 0 
6.579 50.271 0.00000 -0.00000 0 
8.224 50.271 0.00000 -0.00000 0 
9.869 50.271 0.00000 -0.00000 0 
11.514 50.271 0.00000 -0.00000 0 
13.159 50.271 0.00000 -0.00000 0 
14.804 50.271 0.00000 -0.00000 0 
16.449 50.271 0.00000 -0.00000 0 
18.093 50.271 0.00000 -0.00000 0 
19.738 50.271 0.00000 -0.00000 0 
21.383 50.271 0.00000 -0.00000 0 
23.028 50.271 3.43914 0.10769 2 
24.673 50.271 6.87828 0.21537 2 
26.318 50.271 10.31741 0.32306 2 
27.963 50.271 9.42478 0.30559 2 
29.607 50.271 9.58984 0.28370 2 
31.252 50.271 9.35672 0.27192 2 
32.897 50.271 9.49113 0.26762 2 
34.542 50.271 9.51311 0.18935 2 
36.187 50.271 9.58111 0.45290 2 
37.832 50.271 9.36669 0.28376 2 
39.477 50.271 9.47080 0.39224 2 
41.121 50.271 9.45292 0.45058 2 
42.766 50.271 9.34052 0.45681 2 
44.411 50.271 9.48322 0.13363 2 
46.056 50.271 9.63626 0.39142 2 
47.701 50.271 9.33883 0.30125 2 
49.346 50.271 9.52431 0.39086 2 
50.991 50.271 9.46446 0.34683 2 
52.636 50.271 9.61890 0.26477 2 
54.280 50.271 9.55162 0.17137 2 
55.925 50.271 9.52465 0.23124 2 
57.570 50.271 9.41658 0.34052 2 
59.215 50.271 9.24749 0.33057 2 
60.860 50.271 9.66482 0.44031 2 
62.505 50.271 9.74702 0.37087 2 
64.150 50.271 9.65244 0.24714 2 
65.794 50.271 9.59236 0.29127 2 
67.439 50.271 9.79603 0.32233 2 
69.084 50.271 9.47581 0.26978 2 
70.729 50.271 9.91538 0.29756 2 
72.374 50.271 9.84622 0.36178 2 
74.019 50.271 9.58581 0.36254 2 
75.664 50.271 9.68206 0.25479 2 
77.308 50.271 9.44543 0.39554 2 
78.953 50.271 9.54602 0.37389 2 
80.598 50.271 9.71161 0.32770 2 
82.243 50.271 9.58434 0.32313 2 
83.888 50.271 9.48511 0.47871 2 
85.533 50.271 9.60886 0.22837 2 
87.178 50.271 9.42645 0.32043 2 
88.822 50.271 9.60887 0.27746 2 
90.467 50.271 9.80121 0.16924 2 
92.112 50.271 9.46967 0.33263 2 
93.757 50.271 9.76921 0.57970 2 
95.402 50.271 9.47912 0.46217 2 
97.047 50.271 9.68307 0.17857 2 
98.692 50.271 9.70067 0.28573 2 
100.336 50.271 10.33576 0.01210 2 
101.981 50.271 0.00000 -0.00000 0 
103.626 50.271 0.00000 -0.00000 0 
105.271 50.271 0.00000 -0.00000 0 
106.916 50.271 0.00000 -0.00000 0 
108.561 50.271 0.00000 -0.00000 0 
110.206 50.271 2.62555 0.05421 2 
111.850 50.271 10.06611 -0.04519 2 
113.495 50.271 9.54444 0.03521 2 
115.140 50.271 9.46392 0.47160 2 
116.785 50.271 9.54023 0.23397 2 
118.430 50.271 9.84315 0.08897 2 
120.075 50.271 9.48234 0.29727 2 
121.720 50.271 9.61311 0.41801 2 
123.364 50.271 9.50302 0.14651 2 
125.009 50.271 9.73257 0.48586 2 
126.654 50.271 9.92482 0.28005 2 
128.299 50.271 9.68852 0.22046 2 
129.944 50.271 9.47194 0.25370 2 
131.589 50.271 9.60869 0.42063 2 
133.234 50.271 9.40897 0.18174 2 
134.879 50.271 9.68055 0.37148 2 
136.523 50.271 9.53018 0.27321 2 
138.168 50.271 9.74296 0.15696 2 
139.813 50.271 9.64989 0.19681 2 
141.458 50.271 9.86850 0.13536 2 
143.103 50.271 9.82094 0.27522 2 
144.748 50.271 9.68722 0.25826 2 
146.393 50.271 9.83826 0.22049 2 
148.037 50.271 9.63631 0.18196 2 
149.682 50.271 9.62276 0.43136 2 
151.327 50.271 9.71948 0.30727 2 
152.972 50.271 0.00000 -0.00000 0 
-13.159 48.626 0.00000 -0.00000 0 
-11.514 48.626 9.77393 -0.36026 2 
-9.869 48.626 9.33982 -0.10651 2 
-8.224 48.626 9.33871 0.04874 2 
-6.579 48.626 9.39424 -0.09721 2 
-4.935 48.626 9.19664 -0.09810 2 
-3.290 48.626 9.28108 -0.10017 2 
-1.645 48.626 9.31492 -0.15686 2 
0.000 48.626 9.28671 -0.05651 2 
1.645 48.626 9.49320 0.07506 2 
3.290 48.626 0.00000 -0.00000 0 
4.935 48.626 0.00000 -0.00000 0 
6.579 48.626 0.00000 -0.00000 0 
8.224 48.626 0.00000 -0.00000 0 
9.869 48.626 0.00000 -0.00000 0 
11.514 48.626 0.00000 -0.00000 0 
13.159 48.626 0.00000 -0.00000 0 
14.804 48.626 0.00000 -0.00000 0 
16.449 48.626 0.00000 -0.00000 0 
18.093 48.626 0.00000 -0.00000 0 
19.738 48.626 0.00000 -0.00000 0 
21.383 48.626 0.00000 -0.00000 0 
23.028 48.626 1.74827 0.00609 2 
24.673 48.626 5.18740 0.11378 2 
26.318 48.626 9.86523 0.45048 2 
27.963 48.626 9.24827 0.21998 2 
29.607 48.626 9.45328 0.17022 2 
31.252 48.626 9.52439 0.35513 2 
32.897 48.626 9.55731 0.28414 2 
34.542 48.626 9.52554 0.20068 2 
36.187 48.626 9.35563 0.64446 2 
37.832 48.626 9.59094 0.62280 2 
39.477 48.626 9.57883 0.44100 2 
41.121 48.626 9.46698 0.18225 2 
42.766 48.626 9.61350 0.33433 2 
44.411 48.626 9.59754 0.41718 2 
46.056 48.626 9.67656 0.47197 2 
47.701 48.626 9.39855 0.35752 2 
49.346 48.626 9.60122 0.46777 2 
50.991 48.626 9.63672 0.44559 2 
52.636 48.626 9.59124 0.42902 2 
54.280 48.626 9.55412 0.23151 2 
55.925 48.626 9.56913 0.43397 2 
57.570 48.626 9.34666 0.34536 2 
59.215 48.626 9.43252 0.40663 2 
60.860 48.626 9.71779 0.20706 2 
62.505 48.626 9.47511 0.16236 2 
64.150 48.626 9.53095 0.42493 2 
65.794 48.626 9.51074 0.48517 2 
67.439 48.626 9.50732 0.45109 2 
69.084 48.626 9.42115 0.44363 2 
70.729 48.626 9.81642 0.32361 2 
72.374 48.626 9.82090 0.18206 2 
74.019 48.626 9.41163 0.10886 2 
75.664 48.626 9.83792 0.29173 2 
77.308 48.626 9.48091 0.16359 2 
78.953 48.626 9.52615 0.21973 2 
80.598 48.626 9.67013 0.30569 2 
82.243 48.626 9.90297 0.05900 2 
83.888 48.626 9.80060 0.28794 2 
85.533 48.626 9.74119 0.15043 2 
87.178 48.626 9.58379 0.30114 2 
88.822 48.626 9.75488 0.40890 2 
90.467 48.626 9.86295 0.15944 2 
92.112 48.626 9.46898 0.09377 2 
93.757 48.626 9.67383 0.35212 2 
95.402 48.626 9.90918 0.14719 2 
97.047 48.626 9.88891 0.12255 2 
98.692 48.626 10.02788 0.01956 2 
100.336 48.626 10.34108 -0.00876 2 
101.981 48.626 5.17054 -0.00438 2 
103.626 48.626 0.00000 -0.00000 0 
105.271 48.626 0.00000 -0.00000 0 
106.916 48.626 0.00000 -0.00000 0 
108.561 48.626 0.00000 -0.00000 0 
110.206 48.626 -0.10166 -0.14674 2 
111.850 48.626 10.09392 -0.04385 2 
113.495 48.626 9.75436 0.17730 2 
115.140 48.626 9.66707 0.37233 2 
116.785 48.626 9.74836 0.26801 2 
118.430 48.626 9.92783 0.30804 2 
120.075 48.626 9.74150 0.25064 2 
121.720 48.626 9.43687 0.26701 2 
123.364 48.626 9.61555 0.16319 2 
125.009 48.626 9.81923 0.30947 2 
126.654 48.626 9.74533 0.08429 2 
128.299 48.626 9.83309 0.18260 2 
129.944 48.626 9.67700 0.19178 2 
131.589 48.626 9.59418 0.25839 2 
133.234 48.626 9.73085 0.10187 2 
134.879 48.626 9.59355 0.31517 2 
136.523 48.626 9.49001 0.47044 2 
138.168 48.626 9.56581 0.41581 2 
139.813 48.626 9.63792 -0.04147 2 
141.458 48.626 9.69989 0.34958 2 
143.103 48.626 9.67783 0.47048 2 
144.748 48.626 9.69701 0.46061 2 
146.393 48.626 9.83534 0.40697 2 
148.037 48.626 9.63922 0.35744 2 
149.682 48.626 9.59000 0.33328 2 
151.327 48.626 9.66380 0.30137 2 
152.972 48.626 0.00000 -0.00000 0 
-13.159 46.981 0.00000 -0.00000 0 
-11.514 46.981 9.71511 -0.36280 2 
-9.869 46.981 9.24856 -0.10126 2 
-8.224 46.981 9.21060 -0.02806 2 
-6.579 46.981 9.22872 0.21832 2 
-4.935 46.981 9.22225 0.19242 2 
-3.290 46.981 9.16875 -0.04486 2 
-1.645 46.981 9.41026 -0.13528 2 
0.000 46.981 9.38753 0.05776 2 
1.645 46.981 9.69270 0.14037 2 
3.290 46.981 0.00000 -0.00000 0 
4.935 46.981 0.00000 -0.00000 0 
6.579 46.981 0.00000 -0.00000 0 
8.224 46.981 0.00000 -0.00000 0 
9.869 46.981 0.00000 -0.00000 0 
11.514 46.981 0.00000 -0.00000 0 
13.159 46.981 0.00000 -0.00000 0 
14.804 46.981 0.00000 -0.00000 0 
16.449 46.981 0.00000 -0.00000 0 
18.093 46.981 0.00000 -0.00000 0 
19.738 46.981 0.00000 -0.00000 0 
21.383 46.981 0.00000 -0.00000 0 
23.028 46.981 1.74827 0.00609 2 
24.673 46.981 3.49653 0.01218 2 
26.318 46.981 9.36316 0.39113 2 
27.963 46.981 9.29861 0.23815 2 
29.607 46.981 9.43520 0.36508 2 
31.252 46.981 9.37724 0.46000 2 
32.897 46.981 9.65174 0.44693 2 
34.542 46.981 9.53797 0.21200 2 
36.187 46.981 9.57088 0.43795 2 
37.832 46.981 9.49109 0.34500 2 
39.477 46.981 9.38252 0.30827 2 
41.121 46.981 9.45100 0.11428 2 
42.766 46.981 9.63230 0.38978 2 
44.411 46.981 9.46098 0.31248 2 
46.056 46.981 9.61142 0.26384 2 
47.701 46.981 9.56781 0.30103 2 
49.346 46.981 9.70725 0.43614 2 
50.991 46.981 9.70337 0.32252 2 
52.636 46.981 9.81780 0.27734 2 
54.280 46.981 9.73287 0.36165 2 
55.925 46.981 9.77330 0.46919 2 
57.570 46.981 9.49028 0.53225 2 
59.215 46.981 9.67185 0.59199 2 
60.860 46.981 9.83374 0.28494 2 
62.505 46.981 9.58641 0.16457 2 
64.150 46.981 9.51874 0.33293 2 
65.794 46.981 9.59560 0.40641 2 
67.439 46.981 9.56825 0.32384 2 
69.084 46.981 9.61319 0.14794 2 
70.729 46.981 9.50685 0.25218 2 
72.374 46.981 9.70666 0.29314 2 
74.019 46.981 9.36347 0.17898 2 
75.664 46.981 9.63068 0.37054 2 
77.308 46.981 9.59072 0.04178 2 
78.953 46.981 9.67593 0.12389 2 
80.598 46.981 9.70971 0.26502 2 
82.243 46.981 9.82645 0.29795 2 
83.888 46.981 9.74878 0.41362 2 
85.533 46.981 9.59392 0.03169 2 
87.178 46.981 9.75092 0.18407 2 
88.822 46.981 9.82096 0.28272 2 
90.467 46.981 9.75093 0.37740 2 
92.112 46.981 9.55774 0.10620 2 
93.757 46.981 9.67862 0.31098 2 
95.402 46.981 9.60772 0.23852 2 
97.047 46.981 9.69588 0.25922 2 
98.692 46.981 9.69615 0.14422 2 
100.336 46.981 10.15257 0.05656 2 
101.981 46.981 5.07628 0.02828 2 
103.626 46.981 0.00000 -0.00000 0 
105.271 46.981 0.00000 -0.00000 0 
106.916 46.981 0.00000 -0.00000 0 
108.561 46.981 0.00000 -0.00000 0 
110.206 46.981 4.71731 0.06049 2 
111.850 46.981 10.47158 -0.01477 2 
113.495 46.981 9.79500 0.30662 2 
115.140 46.981 9.86587 0.43144 2 
116.785 46.981 9.51103 0.28323 2 
118.430 46.981 9.65580 0.28601 2 
120.075 46.981 9.57423 0.42940 2 
121.720 46.981 9.68769 0.56068 2 
123.364 46.981 9.72808 0.17987 2 
125.009 46.981 9.80548 0.26357 2 
126.654 46.981 9.30952 0.28395 2 
128.299 46.981 9.70906 0.36108 2 
129.944 46.981 9.66917 0.30162 2 
131.589 46.981 9.59319 0.32552 2 
133.234 46.981 9.46983 0.17907 2 
134.879 46.981 9.86041 0.16637 2 
136.523 46.981 9.78229 0.27647 2 
138.168 46.981 9.55766 0.17709 2 
139.813 46.981 9.34848 0.26361 2 
141.458 46.981 9.52614 -0.01801 2 
143.103 46.981 9.61886 0.19403 2 
144.748 46.981 9.71319 0.06191 2 
146.393 46.981 9.65969 -0.02394 2 
148.037 46.981 9.69692 0.28208 2 
149.682 46.981 9.55724 0.23521 2 
151.327 46.981 9.60813 0.29547 2 
152.972 46.981 0.00000 -0.00000 0 
-13.159 45.336 0.00000 -0.00000 0 
-11.514 45.336 9.65628 -0.36534 2 
-9.869 45.336 9.25516 -0.03744 2 
-8.224 45.336 9.26315 -0.01238 2 
-6.579 45.336 9.39388 0.01325 2 
-4.935 45.336 9.48441 0.06138 2 
-3.290 45.336 9.21580 -0.05362 2 
-1.645 45.336 9.29782 0.04498 2 
0.000 45.336 9.19559 0.15641 2 
1.645 45.336 9.65709 0.25359 2 
3.290 45.336 0.00000 -0.00000 0 
4.935 45.336 0.00000 -0.00000 0 
6.579 45.336 0.00000 -0.00000 0 
8.224 45.336 0.00000 -0.00000 0 
9.869 45.336 0.00000 -0.00000 0 
11.514 45.336 0.00000 -0.00000 0 
13.159 45.336 0.00000 -0.00000 0 
14.804 45.336 0.00000 -0.00000 0 
16.449 45.336 0.00000 -0.00000 0 
18.093 45.336 0.00000 -0.00000 0 
19.738 45.336 0.00000 -0.00000 0 
21.383 45.336 0.00000 -0.00000 0 
23.028 45.336 2.22774 0.00215 2 
24.673 45.336 4.45548 0.00430 2 
26.318 45.336 9.11283 0.36824 2 
27.963 45.336 9.25252 0.32593 2 
29.607 45.336 9.16445 0.38603 2 
31.252 45.336 9.24089 0.30790 2 
32.897 45.336 9.30512 0.47518 2 
34.542 45.336 9.64234 0.34104 2 
36.187 45.336 9.56123 0.43070 2 
37.832 45.336 9.58298 0.11566 2 
39.477 45.336 9.59541 0.33983 2 
41.121 45.336 9.49389 0.34709 2 
42.766 45.336 9.51670 0.38644 2 
44.411 45.336 9.32875 0.38666 2 
46.056 45.336 9.46299 0.25886 2 
47.701 45.336 9.63097 0.30684 2 
49.346 45.336 9.81328 0.40451 2 
50.991 45.336 9.45241 0.39077 2 
52.636 45.336 9.65762 0.29695 2 
54.280 45.336 9.71671 0.52513 2 
55.925 45.336 9.60637 0.40062 2 
57.570 45.336 9.51242 0.34334 2 
59.215 45.336 9.55019 0.32736 2 
60.860 45.336 9.90705 0.39395 2 
62.505 45.336 9.77703 0.03885 2 
64.150 45.336 9.70529 0.18115 2 
65.794 45.336 9.70418 0.29524 2 
67.439 45.336 9.71138 0.27647 2 
69.084 45.336 9.94536 0.26174 2 
70.729 45.336 9.56065 0.25006 2 
72.374 45.336 9.38058 0.47321 2 
74.019 45.336 9.58304 0.49159 2 
75.664 45.336 9.88856 0.46620 2 
77.308 45.336 9.69233 0.34568 2 
78.953 45.336 9.78527 0.53303 2 
80.598 45.336 9.59267 0.37576 2 
82.243 45.336 9.60656 0.46925 2 
83.888 45.336 9.62687 0.49553 2 
85.533 45.336 9.72148 0.30638 2 
87.178 45.336 9.77674 0.20225 2 
88.822 45.336 9.63954 0.23487 2 
90.467 45.336 9.46348 0.16374 2 
92.112 45.336 9.62918 0.33106 2 
93.757 45.336 9.68895 0.53433 2 
95.402 45.336 9.61353 0.34526 2 
97.047 45.336 9.88929 0.25353 2 
98.692 45.336 9.54638 0.41173 2 
100.336 45.336 9.81223 0.42519 2 
101.981 45.336 4.90612 0.21260 2 
103.626 45.336 0.00000 -0.00000 0 
105.271 45.336 0.00000 -0.00000 0 
106.916 45.336 0.00000 -0.00000 0 
108.561 45.336 0.00000 -0.00000 0 
110.206 45.336 5.04056 0.10512 2 
111.850 45.336 10.47456 0.30630 2 
113.495 45.336 9.56100 0.42423 2 
115.140 45.336 9.50748 0.26462 2 
116.785 45.336 9.46715 0.23126 2 
118.430 45.336 9.46543 0.30783 2 
120.075 45.336 9.44625 0.45248 2 
121.720 45.336 9.51084 0.36184 2 
123.364 45.336 9.69383 0.34386 2 
125.009 45.336 9.57519 0.60674 2 
126.654 45.336 9.52732 0.39302 2 
128.299 45.336 9.44693 0.31165 2 
129.944 45.336 9.39325 0.42096 2 
131.589 45.336 9.59777 0.49401 2 
133.234 45.336 9.45622 0.14883 2 
134.879 45.336 9.54946 0.17322 2 
136.523 45.336 9.67535 0.13920 2 
138.168 45.336 9.50788 0.14242 2 
139.813 45.336 9.46882 0.22469 2 
141.458 45.336 9.74146 0.38548 2 
143.103 45.336 9.47783 0.30528 2 
144.748 45.336 9.62725 0.30289 2 
146.393 45.336 9.69003 0.30468 2 
148.037 45.336 9.40586 0.32567 2 
149.682 45.336 9.43526 0.06063 2 
151.327 45.336 9.54829 0.04787 2 
152.972 45.336 0.00000 -0.00000 0 
-13.159 43.692 0.00000 -0.00000 0 
-11.514 43.692 9.59745 -0.36788 2 
-9.869 43.692 9.36903 0.05502 2 
-8.224 43.692 9.24079 -0.03649 2 
-6.579 43.692 9.21482 -0.18543 2 
-4.935 43.692 9.40164 0.09234 2 
-3.290 43.692 9.15319 -0.02074 2 
-1.645 43.692 9.26188 0.07663 2 
0.000 43.692 9.12845 0.17918 2 
1.645 43.692 9.99711 0.22757 2 
3.290 43.692 4.73013 -0.03079 2 
4.935 43.692 0.00000 -0.00000 0 
6.579 43.692 0.00000 -0.00000 0 
8.224 43.692 0.00000 -0.00000 0 
9.869 43.692 0.00000 -0.00000 0 
11.514 43.692 0.00000 -0.00000 0 
13.159 43.692 0.00000 -0.00000 0 
14.804 43.692 0.00000 -0.00000 0 
16.449 43.692 0.00000 -0.00000 0 
18.093 43.692 0.00000 -0.00000 0 
19.738 43.692 0.00000 -0.00000 0 
21.383 43.692 0.00000 -0.00000 0 
23.028 43.692 2.70721 -0.00179 2 
24.673 43.692 5.41443 -0.00359 2 
26.318 43.692 9.66201 0.39382 2 
27.963 43.692 9.42198 0.47143 2 
29.607 43.692 9.25874 0.27884 2 
31.252 43.692 9.30645 0.07706 2 
32.897 43.692 9.43090 0.43484 2 
34.542 43.692 9.57113 0.53253 2 
36.187 43.692 9.49399 0.50700 2 
37.832 43.692 9.54091 0.38801 2 
39.477 43.692 9.33323 0.34604 2 
41.121 43.692 9.68852 0.41546 2 
42.766 43.692 9.54646 0.33357 2 
44.411 43.692 9.62164 0.40713 2 
46.056 43.692 9.63704 0.31672 2 
47.701 43.692 9.58039 0.25661 2 
49.346 43.692 9.61474 0.23362 2 
50.991 43.692 9.68640 0.52699 2 
52.636 43.692 9.66719 0.52180 2 
54.280 43.692 9.40960 0.42100 2 
55.925 43.692 9.54097 0.63240 2 
57.570 43.692 9.59535 0.42374 2 
59.215 43.692 9.43390 0.34702 2 
60.860 43.692 9.59460 0.54094 2 
62.505 43.692 9.63766 0.12459 2 
64.150 43.692 9.56030 0.53142 2 
65.794 43.692 9.72225 0.31126 2 
67.439 43.692 9.63161 0.47116 2 
69.084 43.692 9.63596 0.12004 2 
70.729 43.692 9.66366 0.48111 2 
72.374 43.692 9.52904 0.41432 2 
74.019 43.692 9.67535 0.55599 2 
75.664 43.692 9.56253 0.58568 2 
77.308 43.692 9.61262 0.39860 2 
78.953 43.692 9.34985 0.42639 2 
80.598 43.692 9.54365 0.02148 2 
82.243 43.692 9.40465 0.02186 2 
83.888 43.692 9.50495 0.57743 2 
85.533 43.692 9.71504 0.45508 2 
87.178 43.692 9.68837 0.48935 2 
88.822 43.692 9.45812 0.18702 2 
90.467 43.692 9.43959 0.13846 2 
92.112 43.692 9.67552 0.33421 2 
93.757 43.692 9.68350 0.38940 2 
95.402 43.692 9.72682 -0.00183 2 
97.047 43.692 9.94811 0.08873 2 
98.692 43.692 9.79216 0.43360 2 
100.336 43.692 10.13618 0.24541 2 
101.981 43.692 5.06809 0.12271 2 
103.626 43.692 0.00000 -0.00000 0 
105.271 43.692 0.00000 -0.00000 0 
106.916 43.692 0.00000 -0.00000 0 
108.561 43.692 0.00000 -0.00000 0 
110.206 43.692 5.16055 0.20324 2 
111.850 43.692 10.13238 0.41763 2 
113.495 43.692 9.35678 0.14888 2 
115.140 43.692 9.54267 0.02484 2 
116.785 43.692 9.78797 0.13895 2 
118.430 43.692 9.82931 0.44476 2 
120.075 43.692 9.49154 0.23879 2 
121.720 43.692 9.36964 0.45983 2 
123.364 43.692 9.74949 0.43721 2 
125.009 43.692 9.45862 0.24582 2 
126.654 43.692 9.61869 0.38471 2 
128.299 43.692 9.68816 0.16079 2 
129.944 43.692 9.22521 0.43931 2 
131.589 43.692 9.95495 0.30966 2 
133.234 43.692 9.78617 -0.07698 2 
134.879 43.692 9.46447 0.48699 2 
136.523 43.692 9.64408 0.44089 2 
138.168 43.692 9.82499 0.54805 2 
139.813 43.692 9.60846 0.17789 2 
141.458 43.692 9.60527 0.42849 2 
143.103 43.692 9.61820 0.56890 2 
144.748 43.692 9.44713 0.36965 2 
146.393 43.692 9.73144 0.32855 2 
148.037 43.692 9.64153 0.26105 2 
149.682 43.692 9.94752 0.24076 2 
151.327 43.692 9.97135 0.19573 2 
152.972 43.692 0.00000 -0.00000 0 
-13.159 42.047 0.00000 -0.00000 0 
-11.514 42.047 9.53863 -0.37042 2 
-9.869 42.047 9.35969 -0.06672 2 
-8.224 42.047 9.30320 -0.10950 2 
-6.579 42.047 9.13413 -0.21258 2 
-4.935 42.047 9.24265 0.01703 2 
-3.290 42.047 9.23702 0.00758 2 
-1.645 42.047 9.28765 -0.03120 2 
0.000 42.047 9.14665 0.19010 2 
1.645 42.047 9.96654 0.07973 2 
3.290 42.047 4.61116 -0.00791 2 
4.935 42.047 0.00000 -0.00000 0 
6.579 42.047 0.00000 -0.00000 0 
8.224 42.047 0.00000 -0.00000 0 
9.869 42.047 0.00000 -0.00000 0 
11.514 42.047 0.00000 -0.00000 0 
13.159 42.047 0.00000 -0.00000 0 
14.804 42.047 0.00000 -0.00000 0 
16.449 42.047 0.00000 -0.00000 0 
18.093 42.047 0.00000 -0.00000 0 
19.738 42.047 0.00000 -0.00000 0 
21.383 42.047 0.00000 -0.00000 0 
23.028 42.047 5.01097 0.05849 2 
24.673 42.047 10.02194 0.11698 2 
26.318 42.047 9.14984 0.34874 2 
27.963 42.047 9.41504 0.42287 2 
29.607 42.047 9.39170 0.26001 2 
31.252 42.047 9.28979 0.34534 2 
32.897 42.047 9.48116 0.37645 2 
34.542 42.047 9.46239 0.53270 2 
36.187 42.047 9.40768 0.43848 2 
37.832 42.047 9.34205 0.21159 2 
39.477 42.047 9.26279 0.43879 2 
41.121 42.047 9.74583 0.23885 2 
42.766 42.047 9.34177 0.37182 2 
44.411 42.047 9.52284 0.40225 2 
46.056 42.047 9.67219 0.34160 2 
47.701 42.047 9.49312 0.16666 2 
49.346 42.047 9.73891 0.27852 2 
50.991 42.047 9.80797 0.30080 2 
52.636 42.047 9.57458 0.32661 2 
54.280 42.047 9.50289 0.35920 2 
55.925 42.047 9.60494 0.48441 2 
57.570 42.047 9.78597 0.21963 2 
59.215 42.047 9.31761 0.36668 2 
60.860 42.047 9.64051 0.50375 2 
62.505 42.047 9.49828 0.21032 2 
64.150 42.047 9.76183 0.52197 2 
65.794 42.047 9.76503 0.57256 2 
67.439 42.047 9.70767 0.48675 2 
69.084 42.047 9.63160 0.23755 2 
70.729 42.047 9.66928 0.19487 2 
72.374 42.047 9.84819 0.09180 2 
74.019 42.047 9.81181 0.41528 2 
75.664 42.047 9.41495 0.26368 2 
77.308 42.047 9.69817 0.25333 2 
78.953 42.047 9.53181 0.15439 2 
80.598 42.047 9.62703 0.05085 2 
82.243 42.047 9.62997 0.20760 2 
83.888 42.047 9.55869 0.38893 2 
85.533 42.047 9.52332 0.24530 2 
87.178 42.047 9.79736 0.11188 2 
88.822 42.047 9.70545 0.09843 2 
90.467 42.047 9.49349 0.42157 2 
92.112 42.047 9.51216 0.69378 2 
93.757 42.047 9.49520 0.49733 2 
95.402 42.047 9.63014 -0.05954 2 
97.047 42.047 9.92512 -0.03081 2 
98.692 42.047 9.66003 0.18057 2 
100.336 42.047 10.20777 0.11969 2 
101.981 42.047 5.10388 0.05984 2 
103.626 42.047 0.00000 -0.00000 0 
105.271 42.047 0.00000 -0.00000 0 
106.916 42.047 0.00000 -0.00000 0 
108.561 42.047 0.00000 -0.00000 0 
110.206 42.047 4.97468 0.50866 2 
111.850 42.047 9.89570 0.25064 2 
113.495 42.047 9.62505 0.30179 2 
115.140 42.047 9.91569 0.38589 2 
116.785 42.047 9.88207 0.14203 2 
118.430 42.047 9.85309 0.28589 2 
120.075 42.047 9.27687 0.17040 2 
121.720 42.047 9.48025 0.26703 2 
123.364 42.047 9.65384 0.05451 2 
125.009 42.047 9.57010 0.30092 2 
126.654 42.047 9.48936 0.49914 2 
128.299 42.047 9.99814 0.27545 2 
129.944 42.047 9.57063 0.25777 2 
131.589 42.047 9.58230 0.17428 2 
133.234 42.047 9.70342 0.02575 2 
134.879 42.047 9.79774 0.44579 2 
136.523 42.047 9.90166 0.42036 2 
138.168 42.047 9.83142 0.51121 2 
139.813 42.047 9.65041 0.42087 2 
141.458 42.047 9.55955 0.20823 2 
143.103 42.047 9.63909 0.11331 2 
144.748 42.047 9.67577 0.24946 2 
146.393 42.047 9.71918 0.25523 2 
148.037 42.047 9.83980 0.44451 2 
149.682 42.047 9.81136 0.55280 2 
151.327 42.047 10.11603 0.37733 2 
152.972 42.047 0.00000 -0.00000 0 
-13.159 40.402 0.00000 -0.00000 0 
-11.514 40.402 9.47980 -0.37296 2 
-9.869 40.402 9.24498 -0.10833 2 
-8.224 40.402 9.34414 -0.00135 2 
-6.579 40.402 9.31308 -0.10809 2 
-4.935 40.402 9.20816 0.00322 2 
-3.290 40.402 9.21559 0.05359 2 
-1.645 40.402 9.29622 -0.02264 2 
0.000 40.402 9.04080 -0.11405 2 
1.645 40.402 9.93597 -0.06811 2 
3.290 40.402 4.49220 0.01497 2 
4.935 40.402 0.00000 -0.00000 0 
6.579 40.402 0.00000 -0.00000 0 
8.224 40.402 0.00000 -0.00000 0 
9.869 40.402 0.00000 -0.00000 0 
11.514 40.402 0.00000 -0.00000 0 
13.159 40.402 0.00000 -0.00000 0 
14.804 40.402 0.00000 -0.00000 0 
16.449 40.402 0.00000 -0.00000 0 
18.093 40.402 0.00000 -0.00000 0 
19.738 40.402 0.00000 -0.00000 0 
21.383 40.402 -0.17360 -0.16265 2 
23.028 40.402 4.97448 0.00603 2 
24.673 40.402 10.12256 0.17471 2 
26.318 40.402 8.85248 0.36532 2 
27.963 40.402 9.40810 0.37431 2 
29.607 40.402 9.23054 0.47761 2 
31.252 40.402 9.33128 0.36370 2 
32.897 40.402 9.39297 0.22413 2 
34.542 40.402 9.36282 0.51290 2 
36.187 40.402 9.26500 0.60488 2 
37.832 40.402 9.42193 0.48849 2 
39.477 40.402 9.61558 0.62896 2 
41.121 40.402 9.54467 0.26923 2 
42.766 40.402 9.48602 0.54367 2 
44.411 40.402 9.51540 0.56359 2 
46.056 40.402 9.48301 0.68568 2 
47.701 40.402 9.48480 0.36993 2 
49.346 40.402 9.51167 0.51396 2 
50.991 40.402 9.57438 0.32615 2 
52.636 40.402 9.47463 0.23879 2 
54.280 40.402 9.69230 0.52502 2 
55.925 40.402 9.66892 0.33641 2 
57.570 40.402 9.74739 0.14528 2 
59.215 40.402 9.78610 0.13415 2 
60.860 40.402 9.88308 0.55504 2 
62.505 40.402 9.79927 0.27833 2 
64.150 40.402 9.95540 0.62969 2 
65.794 40.402 9.58801 0.38233 2 
67.439 40.402 9.80109 0.24343 2 
69.084 40.402 9.88788 0.31957 2 
70.729 40.402 9.50022 0.34439 2 
72.374 40.402 9.64526 0.33336 2 
74.019 40.402 9.70528 0.12030 2 
75.664 40.402 9.74100 0.17750 2 
77.308 40.402 9.83054 0.09156 2 
78.953 40.402 9.91331 0.00831 2 
80.598 40.402 9.88301 0.33365 2 
82.243 40.402 9.66981 0.34316 2 
83.888 40.402 9.74498 0.27014 2 
85.533 40.402 9.50608 0.11063 2 
87.178 40.402 9.85525 0.07274 2 
88.822 40.402 9.81614 0.18373 2 
90.467 40.402 9.59473 0.46908 2 
92.112 40.402 9.46999 0.43621 2 
93.757 40.402 9.64607 0.53192 2 
95.402 40.402 9.64204 0.16565 2 
97.047 40.402 9.82806 0.08570 2 
98.692 40.402 9.55252 0.27985 2 
100.336 40.402 10.13820 0.24338 2 
101.981 40.402 7.75008 0.13726 2 
103.626 40.402 0.00000 -0.00000 0 
105.271 40.402 0.00000 -0.00000 0 
106.916 40.402 0.00000 -0.00000 0 
108.561 40.402 0.00000 -0.00000 0 