TITLE = "B00015"
VARIABLES = "X [mm]", "Y [mm]", "Vx [m/s]", "Vy [m/s]", "Flag"
ZONE T="Frame 1", I=102, J=77, F=POINT
-13.159 53.561 0.00000 -0.00000 0 
-11.514 53.561 9.65516 -0.16411 2 
-9.869 53.561 9.39290 -0.06992 2 
-8.224 53.561 9.45354 -0.25319 2 
-6.579 53.561 9.43454 -0.16900 2 
-4.935 53.561 9.40247 -0.25075 2 
-3.290 53.561 9.48211 -0.24147 2 
-1.645 53.561 9.28544 0.00180 2 
0.000 53.561 9.73076 0.02937 2 
1.645 53.561 4.86538 0.01468 2 
3.290 53.561 0.00000 -0.00000 0 
4.935 53.561 0.00000 -0.00000 0 
6.579 53.561 0.00000 -0.00000 0 
8.224 53.561 0.00000 -0.00000 0 
9.869 53.561 0.00000 -0.00000 0 
11.514 53.561 0.00000 -0.00000 0 
13.159 53.561 0.00000 -0.00000 0 
14.804 53.561 0.00000 -0.00000 0 
16.449 53.561 0.00000 -0.00000 0 
18.093 53.561 0.00000 -0.00000 0 
19.738 53.561 0.00000 -0.00000 0 
21.383 53.561 0.00000 -0.00000 0 
23.028 53.561 0.96055 0.20624 2 
24.673 53.561 5.42306 0.11576 2 
26.318 53.561 9.88557 0.02527 2 
27.963 53.561 9.35276 0.16617 2 
29.607 53.561 9.53880 0.14954 2 
31.252 53.561 9.50492 0.05756 2 
32.897 53.561 9.54482 0.02521 2 
34.542 53.561 9.57504 0.06797 2 
36.187 53.561 9.60527 0.11073 2 
37.832 53.561 9.63171 0.22441 2 
39.477 53.561 9.64362 0.25179 2 
41.121 53.561 9.45062 0.48637 2 
42.766 53.561 9.31595 0.39911 2 
44.411 53.561 9.49124 0.19754 2 
46.056 53.561 9.57672 0.20380 2 
47.701 53.561 9.68001 0.19103 2 
49.346 53.561 9.70934 0.23936 2 
50.991 53.561 9.62196 0.33426 2 
52.636 53.561 9.42525 0.31517 2 
54.280 53.561 9.50552 0.33710 2 
55.925 53.561 9.58579 0.35903 2 
57.570 53.561 9.71147 0.33752 2 
59.215 53.561 9.60037 0.30103 2 
60.860 53.561 9.57624 0.20364 2 
62.505 53.561 9.65748 0.21443 2 
64.150 53.561 9.62293 0.28896 2 
65.794 53.561 9.70925 0.26945 2 
67.439 53.561 9.75965 0.19917 2 
69.084 53.561 9.70339 0.23364 2 
70.729 53.561 9.67215 0.28310 2 
72.374 53.561 9.72506 0.28305 2 
74.019 53.561 9.47527 0.41584 2 
75.664 53.561 9.62066 0.21826 2 
77.308 53.561 9.66671 0.02078 2 
78.953 53.561 9.74000 0.17913 2 
80.598 53.561 9.74893 0.63167 2 
82.243 53.561 9.55356 0.67780 2 
83.888 53.561 9.81822 0.38952 2 
85.533 53.561 9.64547 0.30182 2 
87.178 53.561 9.58357 0.20228 2 
88.822 53.561 9.73222 0.18450 2 
90.467 53.561 9.72693 0.19886 2 
92.112 53.561 9.59675 0.20470 2 
93.757 53.561 9.36270 0.51578 2 
95.402 53.561 9.63999 0.14350 2 
97.047 53.561 9.85320 0.28029 2 
98.692 53.561 7.40090 0.28076 2 
100.336 53.561 4.94860 0.28122 2 
101.981 53.561 0.00000 -0.00000 0 
103.626 53.561 0.00000 -0.00000 0 
105.271 53.561 0.00000 -0.00000 0 
106.916 53.561 0.00000 -0.00000 0 
108.561 53.561 0.00000 -0.00000 0 
110.206 53.561 5.05619 0.13078 2 
111.850 53.561 10.11239 0.26157 2 
113.495 53.561 9.64543 0.11712 2 
115.140 53.561 9.75364 0.22142 2 
116.785 53.561 9.73194 0.18302 2 
118.430 53.561 9.59377 0.24677 2 
120.075 53.561 9.49433 0.33085 2 
121.720 53.561 9.39952 0.15811 2 
123.364 53.561 9.64428 0.04928 2 
125.009 53.561 9.88904 -0.05955 2 
126.654 53.561 9.72810 -0.01494 2 
128.299 53.561 9.59398 -0.07423 2 
129.944 53.561 9.66413 0.07846 2 
131.589 53.561 9.73427 0.23114 2 
133.234 53.561 9.72092 0.35120 2 
134.879 53.561 9.68949 0.11725 2 
136.523 53.561 9.62980 0.20012 2 
138.168 53.561 9.54516 0.36083 2 
139.813 53.561 9.63069 0.02324 2 
141.458 53.561 9.51135 -0.04307 2 
143.103 53.561 9.50757 -0.01440 2 
144.748 53.561 9.57370 0.18579 2 
146.393 53.561 9.76620 0.37085 2 
148.037 53.561 9.80729 0.21528 2 
149.682 53.561 9.80686 0.14737 2 
151.327 53.561 0.00000 -0.00000 0 
152.972 53.561 0.00000 -0.00000 0 
-13.159 51.916 0.00000 -0.00000 0 
-11.514 51.916 9.71675 -0.17498 2 
-9.869 51.916 9.15946 0.16728 2 
-8.224 51.916 9.36176 -0.18972 2 
-6.579 51.916 9.49593 0.03653 2 
-4.935 51.916 9.53534 -0.19894 2 
-3.290 51.916 9.30779 -0.18607 2 
-1.645 51.916 9.33404 -0.07891 2 
0.000 51.916 9.74353 0.09357 2 
1.645 51.916 9.65240 -0.07687 2 
3.290 51.916 0.00000 -0.00000 0 
4.935 51.916 0.00000 -0.00000 0 
6.579 51.916 0.00000 -0.00000 0 
8.224 51.916 0.00000 -0.00000 0 
9.869 51.916 0.00000 -0.00000 0 
11.514 51.916 0.00000 -0.00000 0 
13.159 51.916 0.00000 -0.00000 0 
14.804 51.916 0.00000 -0.00000 0 
16.449 51.916 0.00000 -0.00000 0 
18.093 51.916 0.00000 -0.00000 0 
19.738 51.916 0.00000 -0.00000 0 
21.383 51.916 0.00000 -0.00000 0 
23.028 51.916 3.52972 -0.03568 2 
24.673 51.916 7.52584 -0.09876 2 
26.318 51.916 9.52245 0.37548 2 
27.963 51.916 9.51330 0.57953 2 
29.607 51.916 9.75653 0.45752 2 
31.252 51.916 9.54611 0.44039 2 
32.897 51.916 9.54324 0.61626 2 
34.542 51.916 9.42698 0.43321 2 
36.187 51.916 9.53893 0.33220 2 
37.832 51.916 9.66786 0.54348 2 
39.477 51.916 9.79586 0.64217 2 
41.121 51.916 9.46124 0.79493 2 
42.766 51.916 9.53065 0.47023 2 
44.411 51.916 9.58852 0.42283 2 
46.056 51.916 9.48201 0.36494 2 
47.701 51.916 9.54465 0.24631 2 
49.346 51.916 9.68375 0.30122 2 
50.991 51.916 9.65776 0.62115 2 
52.636 51.916 9.45251 0.48290 2 
54.280 51.916 9.59681 0.20388 2 
55.925 51.916 9.50844 0.36605 2 
57.570 51.916 9.45411 0.32840 2 
59.215 51.916 9.37282 0.41009 2 
60.860 51.916 9.60592 0.28704 2 
62.505 51.916 9.38618 0.39968 2 
64.150 51.916 9.67222 0.16378 2 
65.794 51.916 9.75716 0.39161 2 
67.439 51.916 9.73909 0.62257 2 
69.084 51.916 9.46952 0.31797 2 
70.729 51.916 9.54763 0.45942 2 
72.374 51.916 9.97293 0.26443 2 
74.019 51.916 9.51939 0.21330 2 
75.664 51.916 9.74052 0.48702 2 
77.308 51.916 9.76194 0.44469 2 
78.953 51.916 9.68058 0.80811 2 
80.598 51.916 9.54016 0.36487 2 
82.243 51.916 9.88345 0.60138 2 
83.888 51.916 9.89988 0.30072 2 
85.533 51.916 9.74397 0.50619 2 
87.178 51.916 9.56807 0.25156 2 
88.822 51.916 9.64032 0.09368 2 
90.467 51.916 9.83123 0.45239 2 
92.112 51.916 9.60179 0.28173 2 
93.757 51.916 9.55118 0.53085 2 
95.402 51.916 9.67079 0.13562 2 
97.047 51.916 9.59939 0.52894 2 
98.692 51.916 10.01696 0.44284 2 
100.336 51.916 5.00848 0.22142 2 
101.981 51.916 0.00000 -0.00000 0 
103.626 51.916 0.00000 -0.00000 0 
105.271 51.916 0.00000 -0.00000 0 
106.916 51.916 0.00000 -0.00000 0 
108.561 51.916 0.00000 -0.00000 0 
110.206 51.916 5.03066 0.21990 2 
111.850 51.916 10.06131 0.43981 2 
113.495 51.916 9.60660 0.21601 2 
115.140 51.916 9.73562 0.16335 2 
116.785 51.916 9.73216 0.53183 2 
118.430 51.916 9.50257 0.19573 2 
120.075 51.916 9.47155 0.08839 2 
121.720 51.916 9.58382 -0.15546 2 
123.364 51.916 9.76182 -0.27788 2 
125.009 51.916 9.63446 0.16824 2 
126.654 51.916 9.33863 0.30232 2 
128.299 51.916 9.61643 0.29221 2 
129.944 51.916 9.70437 0.34980 2 
131.589 51.916 9.79231 0.40738 2 
133.234 51.916 9.57079 0.31657 2 
134.879 51.916 9.50033 0.32141 2 
136.523 51.916 9.79901 0.35168 2 
138.168 51.916 9.57078 0.11832 2 
139.813 51.916 9.70708 0.08801 2 
141.458 51.916 9.43284 0.11700 2 
143.103 51.916 9.43194 0.16419 2 
144.748 51.916 9.77314 0.42898 2 
146.393 51.916 9.73161 0.56998 2 
148.037 51.916 9.86960 0.47391 2 
149.682 51.916 9.61045 0.55712 2 
151.327 51.916 9.70935 0.84675 2 
152.972 51.916 0.00000 -0.00000 0 
-13.159 50.271 0.00000 -0.00000 0 
-11.514 50.271 9.77834 -0.18585 2 
-9.869 50.271 9.20280 -0.09679 2 
-8.224 50.271 9.25769 -0.18756 2 
-6.579 50.271 9.33022 0.12947 2 
-4.935 50.271 9.35376 0.12295 2 
-3.290 50.271 9.19441 -0.12563 2 
-1.645 50.271 9.43686 -0.05487 2 
0.000 50.271 9.35988 0.00055 2 
1.645 50.271 9.32210 -0.00339 2 
3.290 50.271 0.00000 -0.00000 0 
4.935 50.271 0.00000 -0.00000 0 
6.579 50.271 0.00000 -0.00000 0 
8.224 50.271 0.00000 -0.00000 0 
9.869 50.271 0.00000 -0.00000 0 
11.514 50.271 0.00000 -0.00000 0 
13.159 50.271 0.00000 -0.00000 0 
14.804 50.271 0.00000 -0.00000 0 
16.449 50.271 0.00000 -0.00000 0 
18.093 50.271 0.00000 -0.00000 0 
19.738 50.271 0.00000 -0.00000 0 
21.383 50.271 0.00000 -0.00000 0 
23.028 50.271 4.81431 -0.15664 2 
24.673 50.271 9.62862 -0.31327 2 
26.318 50.271 9.41644 0.30302 2 
27.963 50.271 9.52277 0.28762 2 
29.607 50.271 9.58141 0.28321 2 
31.252 50.271 9.45237 0.32528 2 
32.897 50.271 9.55437 0.44454 2 
34.542 50.271 9.37712 0.47577 2 
36.187 50.271 9.35361 0.49472 2 
37.832 50.271 9.40565 0.66644 2 
39.477 50.271 9.54908 0.62079 2 
41.121 50.271 9.54104 0.68813 2 
42.766 50.271 9.61277 0.46318 2 
44.411 50.271 9.72588 0.69229 2 
46.056 50.271 9.56471 0.29262 2 
47.701 50.271 9.64256 0.40946 2 
49.346 50.271 9.87513 0.27840 2 
50.991 50.271 9.67802 0.56901 2 
52.636 50.271 9.47977 0.65063 2 
54.280 50.271 9.69056 0.34305 2 
55.925 50.271 9.52786 0.38106 2 
57.570 50.271 9.42954 0.15874 2 
59.215 50.271 9.44589 0.28325 2 
60.860 50.271 9.65108 0.39587 2 
62.505 50.271 9.55221 0.43714 2 
64.150 50.271 9.53019 0.23772 2 
65.794 50.271 9.67001 0.31809 2 
67.439 50.271 9.52061 0.37373 2 
69.084 50.271 9.61084 0.34347 2 
70.729 50.271 9.68237 0.10030 2 
72.374 50.271 9.77880 0.31119 2 
74.019 50.271 9.67381 0.45907 2 
75.664 50.271 9.72952 0.46240 2 
77.308 50.271 9.62702 0.11312 2 
78.953 50.271 9.81746 0.39219 2 
80.598 50.271 9.73218 0.04288 2 
82.243 50.271 9.67838 0.27607 2 
83.888 50.271 9.84699 0.36603 2 
85.533 50.271 9.86523 0.23612 2 
87.178 50.271 9.52968 0.23808 2 
88.822 50.271 9.79645 0.08607 2 
90.467 50.271 9.77744 0.49837 2 
92.112 50.271 9.56331 0.05135 2 
93.757 50.271 9.78551 0.39414 2 
95.402 50.271 9.37393 0.25076 2 
97.047 50.271 9.49718 0.18320 2 
98.692 50.271 9.80279 0.20018 2 
100.336 50.271 10.54985 0.26136 2 
101.981 50.271 0.00000 -0.00000 0 
103.626 50.271 0.00000 -0.00000 0 
105.271 50.271 0.00000 -0.00000 0 
106.916 50.271 0.00000 -0.00000 0 
108.561 50.271 0.00000 -0.00000 0 
110.206 50.271 5.00512 0.30902 2 
111.850 50.271 10.01024 0.61805 2 
113.495 50.271 9.67826 0.18266 2 
115.140 50.271 9.71759 0.10527 2 
116.785 50.271 9.61836 -0.04517 2 
118.430 50.271 9.62371 0.13012 2 
120.075 50.271 9.40455 0.31851 2 
121.720 50.271 9.76009 0.35581 2 
123.364 50.271 9.61516 0.02908 2 
125.009 50.271 9.66724 0.07431 2 
126.654 50.271 9.45284 0.36726 2 
128.299 50.271 9.89909 0.35216 2 
129.944 50.271 9.81507 0.45230 2 
131.589 50.271 9.80061 0.24097 2 
133.234 50.271 9.42065 0.28194 2 
134.879 50.271 9.60007 0.13871 2 
136.523 50.271 9.62658 0.33570 2 
138.168 50.271 9.72084 0.14176 2 
139.813 50.271 9.61118 0.10012 2 
141.458 50.271 9.66486 0.23064 2 
143.103 50.271 9.68499 0.30261 2 
144.748 50.271 9.87248 0.30215 2 
146.393 50.271 9.65698 0.01280 2 
148.037 50.271 9.99715 0.29507 2 
149.682 50.271 9.35238 0.55471 2 
151.327 50.271 9.98796 0.43032 2 
152.972 50.271 0.00000 -0.00000 0 
-13.159 48.626 0.00000 -0.00000 0 
-11.514 48.626 9.37180 0.08562 2 
-9.869 48.626 9.20960 -0.23333 2 
-8.224 48.626 9.32584 -0.22985 2 
-6.579 48.626 9.32552 0.10825 2 
-4.935 48.626 9.36192 0.05940 2 
-3.290 48.626 9.20077 0.01576 2 
-1.645 48.626 9.26651 0.06452 2 
0.000 48.626 9.35352 0.07478 2 
1.645 48.626 9.49714 0.03634 2 
3.290 48.626 0.00000 -0.00000 0 
4.935 48.626 0.00000 -0.00000 0 
6.579 48.626 0.00000 -0.00000 0 
8.224 48.626 0.00000 -0.00000 0 
9.869 48.626 0.00000 -0.00000 0 
11.514 48.626 0.00000 -0.00000 0 
13.159 48.626 0.00000 -0.00000 0 
14.804 48.626 0.00000 -0.00000 0 
16.449 48.626 0.00000 -0.00000 0 
18.093 48.626 0.00000 -0.00000 0 
19.738 48.626 0.00000 -0.00000 0 
21.383 48.626 0.00000 -0.00000 0 
23.028 48.626 4.89972 0.28872 2 
24.673 48.626 9.79944 0.57744 2 
26.318 48.626 9.25982 0.46086 2 
27.963 48.626 9.32212 0.15396 2 
29.607 48.626 9.44312 0.27267 2 
31.252 48.626 9.32087 0.38801 2 
32.897 48.626 9.41815 0.37830 2 
34.542 48.626 9.62343 0.22936 2 
36.187 48.626 9.35130 0.48287 2 
37.832 48.626 9.28262 0.19843 2 
39.477 48.626 9.53090 0.34154 2 
41.121 48.626 9.63941 0.43159 2 
42.766 48.626 9.60122 0.41283 2 
44.411 48.626 9.82387 0.49067 2 
46.056 48.626 9.63115 0.53839 2 
47.701 48.626 9.47721 0.46083 2 
49.346 48.626 9.61813 0.50602 2 
50.991 48.626 9.59481 0.44609 2 
52.636 48.626 9.36522 0.56934 2 
54.280 48.626 9.59793 0.50550 2 
55.925 48.626 9.64832 0.43327 2 
57.570 48.626 9.57927 0.22733 2 
59.215 48.626 9.73442 0.45990 2 
60.860 48.626 9.76881 0.33179 2 
62.505 48.626 9.70191 0.32387 2 
64.150 48.626 9.50651 0.50272 2 
65.794 48.626 9.68103 0.51741 2 
67.439 48.626 9.65861 0.49777 2 
69.084 48.626 9.75215 0.36898 2 
70.729 48.626 9.77949 0.33649 2 
72.374 48.626 9.93253 0.30916 2 
74.019 48.626 9.69413 0.33150 2 
75.664 48.626 9.63015 0.24911 2 
77.308 48.626 9.70629 0.04115 2 
78.953 48.626 9.68628 0.34087 2 
80.598 48.626 9.72526 0.43003 2 
82.243 48.626 9.37255 0.23073 2 
83.888 48.626 9.47595 0.44338 2 
85.533 48.626 9.65371 0.30969 2 
87.178 48.626 9.63802 0.09216 2 
88.822 48.626 9.94262 0.18932 2 
90.467 48.626 9.76871 0.34487 2 
92.112 48.626 9.50647 0.06868 2 
93.757 48.626 9.62701 0.26760 2 
95.402 48.626 9.54493 -0.04373 2 
97.047 48.626 9.79484 -0.00999 2 
98.692 48.626 9.26073 0.38074 2 
100.336 48.626 10.28561 0.05394 2 
101.981 48.626 5.14281 0.02697 2 
103.626 48.626 0.00000 -0.00000 0 
105.271 48.626 0.00000 -0.00000 0 
106.916 48.626 0.00000 -0.00000 0 
108.561 48.626 0.00000 -0.00000 0 
110.206 48.626 4.97671 0.23679 2 
111.850 48.626 9.95342 0.47358 2 
113.495 48.626 9.74992 0.14931 2 
115.140 48.626 9.71173 -0.02651 2 
116.785 48.626 9.63268 0.04714 2 
118.430 48.626 9.53345 0.53847 2 
120.075 48.626 9.43604 0.62036 2 
121.720 48.626 9.75583 0.16399 2 
123.364 48.626 9.63144 0.11569 2 
125.009 48.626 9.70015 0.16106 2 
126.654 48.626 9.56705 0.43220 2 
128.299 48.626 9.85559 0.26570 2 
129.944 48.626 9.66685 0.44078 2 
131.589 48.626 9.44627 0.37275 2 
133.234 48.626 9.38213 0.47726 2 
134.879 48.626 9.69690 0.32324 2 
136.523 48.626 9.92406 0.46514 2 
138.168 48.626 9.47789 0.41389 2 
139.813 48.626 9.44684 0.15314 2 
141.458 48.626 9.71382 0.29872 2 
143.103 48.626 9.79681 0.39454 2 
144.748 48.626 9.63557 0.41546 2 
146.393 48.626 9.46732 0.13467 2 
148.037 48.626 10.10929 0.30861 2 
149.682 48.626 9.68016 0.34996 2 
151.327 48.626 9.83665 0.40964 2 
152.972 48.626 0.00000 -0.00000 0 
-13.159 46.981 0.00000 -0.00000 0 
-11.514 46.981 9.63924 0.11466 2 
-9.869 46.981 9.24395 -0.12097 2 
-8.224 46.981 9.56879 -0.08440 2 
-6.579 46.981 9.38043 0.13734 2 
-4.935 46.981 9.45001 0.09116 2 
-3.290 46.981 9.36236 -0.01163 2 
-1.645 46.981 9.26579 -0.00605 2 
0.000 46.981 9.37144 0.03632 2 
1.645 46.981 9.64430 0.05105 2 
3.290 46.981 0.00000 -0.00000 0 
4.935 46.981 0.00000 -0.00000 0 
6.579 46.981 0.00000 -0.00000 0 
8.224 46.981 0.00000 -0.00000 0 
9.869 46.981 0.00000 -0.00000 0 
11.514 46.981 0.00000 -0.00000 0 
13.159 46.981 0.00000 -0.00000 0 
14.804 46.981 0.00000 -0.00000 0 
16.449 46.981 0.00000 -0.00000 0 
18.093 46.981 0.00000 -0.00000 0 
19.738 46.981 0.00000 -0.00000 0 
21.383 46.981 0.00000 -0.00000 0 
23.028 46.981 4.99035 0.24345 2 
24.673 46.981 9.98070 0.48690 2 
26.318 46.981 9.04627 0.28105 2 
27.963 46.981 9.23760 0.20065 2 
29.607 46.981 9.49684 0.37755 2 
31.252 46.981 9.35885 0.40586 2 
32.897 46.981 9.50834 0.25052 2 
34.542 46.981 9.49972 0.16493 2 
36.187 46.981 9.65947 0.44844 2 
37.832 46.981 9.38425 0.27175 2 
39.477 46.981 9.61143 0.37167 2 
41.121 46.981 9.65709 0.43786 2 
42.766 46.981 9.49918 0.46212 2 
44.411 46.981 9.61074 0.29072 2 
46.056 46.981 9.63168 0.47949 2 
47.701 46.981 9.35187 0.44673 2 
49.346 46.981 9.50242 0.37398 2 
50.991 46.981 9.72290 0.36477 2 
52.636 46.981 9.51147 0.38980 2 
54.280 46.981 9.78993 0.65963 2 
55.925 46.981 9.56457 0.51816 2 
57.570 46.981 9.78528 0.47698 2 
59.215 46.981 9.63427 0.39900 2 
60.860 46.981 9.55053 0.23864 2 
62.505 46.981 9.63076 0.05457 2 
64.150 46.981 9.49651 0.64693 2 
65.794 46.981 9.67220 0.34676 2 
67.439 46.981 9.63226 0.32755 2 
69.084 46.981 9.64770 0.15164 2 
70.729 46.981 9.39165 0.36477 2 
72.374 46.981 9.78832 0.34285 2 
74.019 46.981 9.55454 0.43173 2 
75.664 46.981 9.53813 0.43466 2 
77.308 46.981 9.80688 0.14890 2 
78.953 46.981 9.55510 0.28956 2 
80.598 46.981 9.53476 0.58172 2 
82.243 46.981 9.71264 0.25770 2 
83.888 46.981 9.65418 0.56878 2 
85.533 46.981 9.79457 0.54886 2 
87.178 46.981 9.80135 -0.00420 2 
88.822 46.981 9.62717 0.09578 2 
90.467 46.981 9.75545 0.22029 2 
92.112 46.981 9.56047 -0.06809 2 
93.757 46.981 9.55005 -0.04538 2 
95.402 46.981 9.88576 0.03065 2 
97.047 46.981 9.93532 0.35860 2 
98.692 46.981 9.41274 0.26756 2 
100.336 46.981 10.23550 0.35223 2 
101.981 46.981 5.11775 0.17612 2 
103.626 46.981 0.00000 -0.00000 0 
105.271 46.981 0.00000 -0.00000 0 
106.916 46.981 0.00000 -0.00000 0 
108.561 46.981 0.00000 -0.00000 0 
110.206 46.981 5.06045 0.25041 2 
111.850 46.981 10.12091 0.50083 2 
113.495 46.981 9.83501 0.46096 2 
115.140 46.981 9.58097 0.80317 2 
116.785 46.981 9.59643 0.42319 2 
118.430 46.981 9.35971 0.37869 2 
120.075 46.981 9.42015 0.31070 2 
121.720 46.981 9.40635 0.19062 2 
123.364 46.981 9.39728 0.15405 2 
125.009 46.981 9.73475 -0.01319 2 
126.654 46.981 9.51397 0.03807 2 
128.299 46.981 9.66368 0.24177 2 
129.944 46.981 9.51862 0.42925 2 
131.589 46.981 9.59032 0.43727 2 
133.234 46.981 9.51195 0.37274 2 
134.879 46.981 9.62983 0.28407 2 
136.523 46.981 9.82732 0.35843 2 
138.168 46.981 9.52431 0.32495 2 
139.813 46.981 9.55051 0.03758 2 
141.458 46.981 9.48373 0.27301 2 
143.103 46.981 9.54732 0.25268 2 
144.748 46.981 9.46838 0.43314 2 
146.393 46.981 9.50292 0.35362 2 
148.037 46.981 9.91254 0.24257 2 
149.682 46.981 9.80071 0.08541 2 
151.327 46.981 9.68535 0.38897 2 
152.972 46.981 0.00000 -0.00000 0 
-13.159 45.336 0.00000 -0.00000 0 
-11.514 45.336 9.71943 -0.04518 2 
-9.869 45.336 9.47430 -0.10854 2 
-8.224 45.336 9.40264 -0.07477 2 
-6.579 45.336 9.36150 -0.03025 2 
-4.935 45.336 9.49205 0.21072 2 
-3.290 45.336 9.38069 -0.01539 2 
-1.645 45.336 9.47575 -0.09088 2 
0.000 45.336 9.31312 -0.01141 2 
1.645 45.336 9.45079 0.20124 2 
3.290 45.336 0.00000 -0.00000 0 
4.935 45.336 0.00000 -0.00000 0 
6.579 45.336 0.00000 -0.00000 0 
8.224 45.336 0.00000 -0.00000 0 
9.869 45.336 0.00000 -0.00000 0 
11.514 45.336 0.00000 -0.00000 0 
13.159 45.336 0.00000 -0.00000 0 
14.804 45.336 0.00000 -0.00000 0 
16.449 45.336 0.00000 -0.00000 0 
18.093 45.336 0.00000 -0.00000 0 
19.738 45.336 0.00000 -0.00000 0 
21.383 45.336 0.00000 -0.00000 0 
23.028 45.336 4.70217 0.14751 2 
24.673 45.336 9.40435 0.29501 2 
26.318 45.336 9.30444 0.19749 2 
27.963 45.336 9.37832 0.29344 2 
29.607 45.336 9.40986 0.48620 2 
31.252 45.336 9.34769 0.35029 2 
32.897 45.336 9.34169 0.34320 2 
34.542 45.336 9.33522 0.39995 2 
36.187 45.336 9.58195 0.51833 2 
37.832 45.336 9.35191 0.55512 2 
39.477 45.336 9.68748 0.33940 2 
41.121 45.336 9.52444 0.50203 2 
42.766 45.336 9.39714 0.51141 2 
44.411 45.336 9.51439 0.33021 2 
46.056 45.336 9.63741 0.41479 2 
47.701 45.336 9.64479 0.52668 2 
49.346 45.336 9.71103 0.19106 2 
50.991 45.336 9.59573 0.59887 2 
52.636 45.336 9.57588 0.41562 2 
54.280 45.336 9.61426 0.43921 2 
55.925 45.336 9.56427 0.27197 2 
57.570 45.336 9.57316 0.51832 2 
59.215 45.336 9.55285 0.17958 2 
60.860 45.336 9.76912 0.57268 2 
62.505 45.336 9.74475 0.57230 2 
64.150 45.336 9.39832 0.56397 2 
65.794 45.336 9.74958 0.38353 2 
67.439 45.336 9.58076 0.25153 2 
69.084 45.336 9.70396 0.29398 2 
70.729 45.336 9.55444 0.44176 2 
72.374 45.336 9.64046 0.34193 2 
74.019 45.336 9.63621 0.32316 2 
75.664 45.336 9.54957 0.19900 2 
77.308 45.336 9.71647 0.19656 2 
78.953 45.336 9.33302 0.16530 2 
80.598 45.336 9.55395 0.33201 2 
82.243 45.336 9.93715 0.00609 2 
83.888 45.336 9.58824 0.14959 2 
85.533 45.336 9.62359 0.37228 2 
87.178 45.336 9.97126 -0.05863 2 
88.822 45.336 9.49274 0.09328 2 
90.467 45.336 9.69397 -0.00084 2 
92.112 45.336 9.68789 0.15603 2 
93.757 45.336 9.47827 0.28156 2 
95.402 45.336 9.68216 0.44979 2 
97.047 45.336 9.73202 0.10796 2 
98.692 45.336 9.40664 0.01956 2 
100.336 45.336 10.22336 0.25374 2 
101.981 45.336 5.11168 0.12687 2 
103.626 45.336 0.00000 -0.00000 0 
105.271 45.336 0.00000 -0.00000 0 
106.916 45.336 0.00000 -0.00000 0 
108.561 45.336 0.00000 -0.00000 0 
110.206 45.336 5.21338 0.63952 2 
111.850 45.336 10.22919 0.60579 2 
113.495 45.336 9.84767 0.54893 2 
115.140 45.336 9.63483 0.65370 2 
116.785 45.336 9.60968 0.26999 2 
118.430 45.336 9.54221 0.24916 2 
120.075 45.336 9.74914 0.55666 2 
121.720 45.336 9.76408 0.63964 2 
123.364 45.336 9.70988 0.37694 2 
125.009 45.336 9.74026 0.02561 2 
126.654 45.336 9.83234 -0.07213 2 
128.299 45.336 9.89268 0.39728 2 
129.944 45.336 9.66391 0.35232 2 
131.589 45.336 9.63293 0.40505 2 
133.234 45.336 9.63544 0.09181 2 
134.879 45.336 9.66601 0.32041 2 
136.523 45.336 9.73059 0.25172 2 
138.168 45.336 9.69865 0.50971 2 
139.813 45.336 9.56509 0.10226 2 
141.458 45.336 9.43860 0.01430 2 
143.103 45.336 9.50312 0.26447 2 
144.748 45.336 9.60499 0.31198 2 
146.393 45.336 9.82548 0.36258 2 
148.037 45.336 9.80395 0.40503 2 
149.682 45.336 9.51986 0.12812 2 
151.327 45.336 9.38175 0.47750 2 
152.972 45.336 0.00000 -0.00000 0 
-13.159 43.692 0.00000 -0.00000 0 
-11.514 43.692 9.79962 -0.20503 2 
-9.869 43.692 9.21157 -0.21037 2 
-8.224 43.692 9.18808 -0.19531 2 
-6.579 43.692 9.34257 -0.19784 2 
-4.935 43.692 9.33409 -0.08064 2 
-3.290 43.692 9.15451 0.22051 2 
-1.645 43.692 9.32749 0.01240 2 
0.000 43.692 9.09347 0.23074 2 
1.645 43.692 9.49173 0.14153 2 
3.290 43.692 3.19273 0.06138 2 
4.935 43.692 0.00000 -0.00000 0 
6.579 43.692 0.00000 -0.00000 0 
8.224 43.692 0.00000 -0.00000 0 
9.869 43.692 0.00000 -0.00000 0 
11.514 43.692 0.00000 -0.00000 0 
13.159 43.692 0.00000 -0.00000 0 
14.804 43.692 0.00000 -0.00000 0 
16.449 43.692 0.00000 -0.00000 0 
18.093 43.692 0.00000 -0.00000 0 
19.738 43.692 0.00000 -0.00000 0 
21.383 43.692 0.00000 -0.00000 0 
23.028 43.692 4.72373 0.35797 2 
24.673 43.692 9.83208 0.41991 2 
26.318 43.692 9.60937 0.28630 2 
27.963 43.692 9.53540 0.37410 2 
29.607 43.692 9.55415 0.53856 2 
31.252 43.692 9.34940 0.40586 2 
32.897 43.692 9.24085 0.30297 2 
34.542 43.692 9.48292 0.45033 2 
36.187 43.692 9.46092 0.47155 2 
37.832 43.692 9.41708 0.52573 2 
39.477 43.692 9.77644 0.49662 2 
41.121 43.692 9.46761 0.45105 2 
42.766 43.692 9.61473 0.40593 2 
44.411 43.692 9.57321 0.29201 2 
46.056 43.692 9.49189 0.47538 2 
47.701 43.692 9.45605 0.37700 2 
49.346 43.692 9.71966 0.19700 2 
50.991 43.692 9.51683 0.49981 2 
52.636 43.692 9.52539 0.58129 2 
54.280 43.692 9.50394 0.54812 2 
55.925 43.692 9.71620 0.42124 2 
57.570 43.692 9.53896 0.28419 2 
59.215 43.692 9.52462 0.16270 2 
60.860 43.692 9.81908 0.50747 2 
62.505 43.692 9.78341 0.44647 2 
64.150 43.692 9.55023 0.21015 2 
65.794 43.692 9.68037 0.46774 2 
67.439 43.692 9.62808 0.58026 2 
69.084 43.692 9.77786 0.43162 2 
70.729 43.692 9.81975 0.31980 2 
72.374 43.692 9.74926 0.12761 2 
74.019 43.692 9.79530 0.18944 2 
75.664 43.692 9.83007 0.25117 2 
77.308 43.692 9.55506 0.16317 2 
78.953 43.692 9.28004 0.07516 2 
80.598 43.692 9.71469 0.14193 2 
82.243 43.692 9.98409 0.24233 2 
83.888 43.692 9.59151 0.20776 2 
85.533 43.692 9.71519 0.26363 2 
87.178 43.692 9.73467 0.08762 2 
88.822 43.692 9.45590 0.20040 2 
90.467 43.692 9.76304 0.18223 2 
92.112 43.692 9.92327 0.34846 2 
93.757 43.692 9.62281 0.39171 2 
95.402 43.692 9.41090 0.11527 2 
97.047 43.692 9.48878 0.19643 2 
98.692 43.692 9.41724 0.10014 2 
100.336 43.692 10.21123 0.15524 2 
101.981 43.692 5.10561 0.07762 2 
103.626 43.692 0.00000 -0.00000 0 
105.271 43.692 0.00000 -0.00000 0 
106.916 43.692 0.00000 -0.00000 0 
108.561 43.692 0.00000 -0.00000 0 
110.206 43.692 5.35088 0.27612 2 
111.850 43.692 10.34031 0.44827 2 
113.495 43.692 9.78884 0.28099 2 
115.140 43.692 9.65892 0.39866 2 
116.785 43.692 9.83798 0.35140 2 
118.430 43.692 9.48605 0.65205 2 
120.075 43.692 9.83646 0.29376 2 
121.720 43.692 9.73789 0.41635 2 
123.364 43.692 9.59187 0.43578 2 
125.009 43.692 9.53081 0.04602 2 
126.654 43.692 9.66504 0.26167 2 
128.299 43.692 9.76397 0.43155 2 
129.944 43.692 9.80891 0.53138 2 
131.589 43.692 9.52659 0.18294 2 
133.234 43.692 9.56871 0.14185 2 
134.879 43.692 9.49754 0.21821 2 
136.523 43.692 9.61972 0.58969 2 
138.168 43.692 9.74534 0.31606 2 
139.813 43.692 9.92614 0.31671 2 
141.458 43.692 9.68143 0.33214 2 
143.103 43.692 9.50733 0.32820 2 
144.748 43.692 9.43594 0.23237 2 
146.393 43.692 9.87794 0.35245 2 
148.037 43.692 9.83705 0.56791 2 
149.682 43.692 9.93766 0.21530 2 
151.327 43.692 10.01662 0.53290 2 
152.972 43.692 0.00000 -0.00000 0 
-13.159 42.047 0.00000 -0.00000 0 
-11.514 42.047 9.47467 -0.16029 2 
-9.869 42.047 9.29030 -0.07578 2 
-8.224 42.047 9.39372 0.01839 2 
-6.579 42.047 9.33154 -0.08916 2 
-4.935 42.047 9.23810 0.00747 2 
-3.290 42.047 9.35680 0.02132 2 
-1.645 42.047 9.39019 -0.12842 2 
0.000 42.047 9.12152 0.10660 2 
1.645 42.047 9.53267 0.08182 2 
3.290 42.047 6.38546 0.12275 2 
4.935 42.047 0.00000 -0.00000 0 
6.579 42.047 0.00000 -0.00000 0 
8.224 42.047 0.00000 -0.00000 0 
9.869 42.047 0.00000 -0.00000 0 
11.514 42.047 0.00000 -0.00000 0 
13.159 42.047 0.00000 -0.00000 0 
14.804 42.047 0.00000 -0.00000 0 
16.449 42.047 0.00000 -0.00000 0 
18.093 42.047 0.00000 -0.00000 0 
19.738 42.047 0.00000 -0.00000 0 
21.383 42.047 0.00000 -0.00000 0 
23.028 42.047 5.12990 0.27241 2 
24.673 42.047 10.25981 0.54481 2 
26.318 42.047 9.20872 0.25053 2 
27.963 42.047 9.33374 0.32291 2 
29.607 42.047 9.37946 0.43557 2 
31.252 42.047 9.39306 0.49721 2 
32.897 42.047 9.52126 0.37207 2 
34.542 42.047 9.50024 0.44817 2 
36.187 42.047 9.59201 0.49731 2 
37.832 42.047 9.56273 0.45425 2 
39.477 42.047 9.58362 0.50433 2 
41.121 42.047 9.58360 0.43998 2 
42.766 42.047 9.45034 0.24597 2 
44.411 42.047 9.42496 0.23571 2 
46.056 42.047 9.61807 0.51026 2 
47.701 42.047 9.45462 0.74884 2 
49.346 42.047 9.49851 0.41682 2 
50.991 42.047 9.47408 0.31614 2 
52.636 42.047 9.30345 0.59729 2 
54.280 42.047 9.56115 0.71258 2 
55.925 42.047 9.77351 0.50262 2 
57.570 42.047 9.43262 0.67920 2 
59.215 42.047 9.50262 0.57277 2 
60.860 42.047 9.66304 0.29823 2 
62.505 42.047 9.54952 0.42093 2 
64.150 42.047 9.74638 0.50034 2 
65.794 42.047 9.77597 0.31849 2 
67.439 42.047 9.60840 0.68395 2 
69.084 42.047 9.58861 0.52949 2 
70.729 42.047 9.43665 0.36019 2 
72.374 42.047 9.53420 0.25829 2 
74.019 42.047 9.75509 0.11678 2 
75.664 42.047 9.65591 0.39304 2 
77.308 42.047 9.55995 0.26519 2 
78.953 42.047 9.46399 0.13733 2 
80.598 42.047 9.84098 0.11911 2 
82.243 42.047 9.85656 0.24073 2 
83.888 42.047 9.72132 0.07205 2 
85.533 42.047 9.92368 0.10417 2 
87.178 42.047 9.82042 0.28176 2 
88.822 42.047 9.64741 0.38408 2 
90.467 42.047 9.74887 0.07693 2 
92.112 42.047 9.46467 0.32236 2 
93.757 42.047 9.40907 0.33837 2 
95.402 42.047 9.43549 -0.00948 2 
97.047 42.047 9.52830 0.00462 2 
98.692 42.047 9.58841 0.47839 2 
100.336 42.047 9.86459 0.16171 2 
101.981 42.047 7.47810 0.11470 2 
103.626 42.047 0.00000 -0.00000 0 
105.271 42.047 0.00000 -0.00000 0 
106.916 42.047 0.00000 -0.00000 0 
108.561 42.047 0.00000 -0.00000 0 
110.206 42.047 5.01036 0.13571 2 
111.850 42.047 10.02072 0.27142 2 
113.495 42.047 9.67274 0.14437 2 
115.140 42.047 9.55144 0.20272 2 
116.785 42.047 9.64627 0.25363 2 
118.430 42.047 9.67735 0.44422 2 
120.075 42.047 9.58514 0.12032 2 
121.720 42.047 9.45132 0.41685 2 
123.364 42.047 9.63326 0.41056 2 
125.009 42.047 9.50666 0.03785 2 
126.654 42.047 9.81464 0.23249 2 
128.299 42.047 9.88864 0.42952 2 
129.944 42.047 9.75542 0.40126 2 
131.589 42.047 9.63682 0.21852 2 
133.234 42.047 9.50199 0.19189 2 
134.879 42.047 9.46540 0.37824 2 
136.523 42.047 9.59815 0.43280 2 
138.168 42.047 9.74634 0.22615 2 
139.813 42.047 9.84496 0.50160 2 
141.458 42.047 9.74756 0.39925 2 
143.103 42.047 9.65201 0.37052 2 
144.748 42.047 9.94154 0.21473 2 
146.393 42.047 9.81869 0.26146 2 
148.037 42.047 9.79229 0.22210 2 
149.682 42.047 9.80714 0.33366 2 
151.327 42.047 10.27498 0.54721 2 
152.972 42.047 0.00000 -0.00000 0 
-13.159 40.402 0.00000 -0.00000 0 
-11.514 40.402 9.61102 -0.14547 2 
-9.869 40.402 9.41255 -0.18881 2 
-8.224 40.402 9.36163 -0.02432 2 
-6.579 40.402 9.22581 0.00005 2 
-4.935 40.402 9.26713 0.03399 2 
-3.290 40.402 9.38293 0.12461 2 
-1.645 40.402 9.31794 0.07005 2 
0.000 40.402 9.25909 0.01704 2 
1.645 40.402 9.57360 0.02211 2 
3.290 40.402 9.57819 0.18413 2 
4.935 40.402 0.00000 -0.00000 0 
6.579 40.402 0.00000 -0.00000 0 
8.224 40.402 0.00000 -0.00000 0 
9.869 40.402 0.00000 -0.00000 0 
11.514 40.402 0.00000 -0.00000 0 
13.159 40.402 0.00000 -0.00000 0 
14.804 40.402 0.00000 -0.00000 0 
16.449 40.402 0.00000 -0.00000 0 
18.093 40.402 0.00000 -0.00000 0 
19.738 40.402 0.00000 -0.00000 0 
21.383 40.402 2.08510 0.10867 2 
23.028 40.402 6.25529 0.32600 2 
24.673 40.402 10.42548 0.54334 2 
26.318 40.402 9.11524 0.35006 2 
27.963 40.402 9.30632 0.46547 2 
29.607 40.402 9.16755 0.52760 2 
31.252 40.402 9.33931 0.35787 2 
32.897 40.402 9.56479 0.33504 2 
34.542 40.402 9.31856 0.33168 2 
36.187 40.402 9.65529 0.47283 2 
37.832 40.402 9.56148 0.51177 2 
39.477 40.402 9.42501 0.39757 2 
41.121 40.402 9.60818 0.36049 2 
42.766 40.402 9.35477 0.44343 2 
44.411 40.402 9.38598 0.33436 2 
46.056 40.402 9.60792 0.68210 2 
47.701 40.402 9.69467 0.57492 2 
49.346 40.402 9.36568 0.49088 2 
50.991 40.402 9.44757 0.49665 2 
52.636 40.402 9.61002 0.14314 2 
54.280 40.402 9.57751 0.48301 2 
55.925 40.402 9.73138 0.41410 2 
57.570 40.402 9.71813 0.40735 2 
59.215 40.402 9.56665 0.52639 2 
60.860 40.402 9.52714 0.42408 2 
62.505 40.402 9.48454 0.60395 2 
64.150 40.402 9.90473 0.21610 2 
65.794 40.402 9.79685 0.41410 2 
67.439 40.402 9.44856 0.55368 2 
69.084 40.402 9.67136 0.51485 2 
70.729 40.402 9.55725 0.66483 2 
72.374 40.402 9.42832 0.48764 2 
74.019 40.402 9.67825 0.13619 2 
75.664 40.402 9.39982 0.34004 2 
77.308 40.402 9.84765 0.22919 2 
78.953 40.402 9.73960 -0.01938 2 
80.598 40.402 10.05282 0.31343 2 
82.243 40.402 9.70636 -0.02316 2 
83.888 40.402 9.53389 0.07845 2 
85.533 40.402 9.75862 0.23948 2 
87.178 40.402 9.82036 0.25676 2 
88.822 40.402 9.64535 0.59651 2 
90.467 40.402 9.60220 -0.05848 2 
92.112 40.402 9.31939 0.09392 2 
93.757 40.402 9.39696 0.60160 2 
95.402 40.402 9.66672 0.31155 2 
97.047 40.402 9.67815 0.01287 2 
98.692 40.402 9.87394 0.21191 2 
100.336 40.402 9.58102 0.35247 2 
101.981 40.402 9.85059 0.15177 2 
103.626 40.402 0.00000 -0.00000 0 
105.271 40.402 0.00000 -0.00000 0 
106.916 40.402 0.00000 -0.00000 0 
108.561 40.402 0.00000 -0.00000 0 