TITLE = "B00001"
VARIABLES = "X [mm]", "Y [mm]", "Vx [m/s]", "Vy [m/s]", "Flag"
ZONE T="Frame 1", I=102, J=77, F=POINT
-13.159 53.561 4.66209 -7.11478 2 
-11.514 53.561 15.27513 -13.75760 2 
-9.869 53.561 3.83102 -9.49084 2 
-8.224 53.561 6.44262 -11.34698 2 
-6.579 53.561 7.16512 -14.74161 2 
-4.935 53.561 14.72835 -8.40542 2 
-3.290 53.561 10.47753 -7.25097 2 
-1.645 53.561 4.36079 4.47531 2 
0.000 53.561 2.76531 9.33366 2 
1.645 53.561 8.03364 16.44829 2 
3.290 53.561 2.80679 14.79509 2 
4.935 53.561 0.00000 -0.00000 0 
6.579 53.561 0.00000 -0.00000 0 
8.224 53.561 0.00000 -0.00000 0 
9.869 53.561 0.00000 -0.00000 0 
11.514 53.561 0.00000 -0.00000 0 
13.159 53.561 0.00000 -0.00000 0 
14.804 53.561 0.00000 -0.00000 0 
16.449 53.561 0.00000 -0.00000 0 
18.093 53.561 0.00000 -0.00000 0 
19.738 53.561 0.00000 -0.00000 0 
21.383 53.561 0.00000 -0.00000 0 
23.028 53.561 0.00000 -0.00000 0 
24.673 53.561 10.37560 3.13773 2 
26.318 53.561 20.75121 6.27546 2 
27.963 53.561 15.52685 16.66760 2 
29.607 53.561 19.12616 21.72358 2 
31.252 53.561 14.40149 8.59406 2 
32.897 53.561 8.98375 12.85536 2 
34.542 53.561 -0.53965 10.54802 2 
36.187 53.561 8.90503 17.15079 2 
37.832 53.561 14.32431 16.14363 2 
39.477 53.561 5.48445 4.38908 2 
41.121 53.561 9.84648 5.27761 2 
42.766 53.561 6.49322 20.76573 2 
44.411 53.561 5.36703 24.54772 2 
46.056 53.561 12.92540 11.51979 2 
47.701 53.561 15.09214 11.33778 2 
49.346 53.561 22.27122 11.21259 2 
50.991 53.561 20.22984 11.47494 2 
52.636 53.561 8.79932 10.82956 2 
54.280 53.561 14.96069 6.53544 2 
55.925 53.561 11.39759 14.83365 2 
57.570 53.561 2.47545 10.98623 2 
59.215 53.561 5.76087 -9.47585 2 
60.860 53.561 -9.46323 -19.44317 2 
62.505 53.561 1.19037 -20.92062 2 
64.150 53.561 13.59211 -23.99047 2 
65.794 53.561 12.12738 -18.63253 2 
67.439 53.561 9.96509 -11.76386 2 
69.084 53.561 17.19808 -13.19100 2 
70.729 53.561 16.23625 -19.09868 2 
72.374 53.561 2.81248 -19.48430 2 
74.019 53.561 6.12056 -6.86642 2 
75.664 53.561 -7.57484 -3.09321 2 
77.308 53.561 6.61650 -1.80657 2 
78.953 53.561 8.52991 6.88082 2 
80.598 53.561 2.88086 11.01829 2 
82.243 53.561 -2.25423 16.81757 2 
83.888 53.561 18.62036 12.10236 2 
85.533 53.561 7.65666 6.65859 2 
87.178 53.561 6.49113 -1.31454 2 
88.822 53.561 18.24955 -9.61874 2 
90.467 53.561 11.70928 -2.84281 2 
92.112 53.561 -0.90971 11.97669 2 
93.757 53.561 5.09237 13.52812 2 
95.402 53.561 11.73320 7.03127 2 
97.047 53.561 5.83749 6.45513 2 
98.692 53.561 4.37114 1.73043 2 
100.336 53.561 -0.06352 -8.97837 2 
101.981 53.561 1.88699 -8.65503 2 
103.626 53.561 0.00000 -0.00000 0 
105.271 53.561 0.00000 -0.00000 0 
106.916 53.561 0.00000 -0.00000 0 
108.561 53.561 0.00000 -0.00000 0 
110.206 53.561 0.00000 -0.00000 0 
111.850 53.561 11.39885 13.20552 2 
113.495 53.561 3.77585 8.59781 2 
115.140 53.561 0.90426 10.54231 2 
116.785 53.561 4.42667 10.00971 2 
118.430 53.561 6.34978 4.94454 2 
120.075 53.561 -1.41200 12.84188 2 
121.720 53.561 4.50336 13.92566 2 
123.364 53.561 12.05294 9.52891 2 
125.009 53.561 -0.48819 -2.08693 2 
126.654 53.561 -8.48746 -9.24691 2 
128.299 53.561 6.16262 -11.41650 2 
129.944 53.561 13.08068 -7.50021 2 
131.589 53.561 2.91122 -5.47661 2 
133.234 53.561 -3.39206 -3.20086 2 
134.879 53.561 9.93591 5.41666 2 
136.523 53.561 3.08364 11.34843 2 
138.168 53.561 1.00228 9.35396 2 
139.813 53.561 18.35195 6.27394 2 
141.458 53.561 8.08460 18.46752 2 
143.103 53.561 11.42273 13.38665 2 
144.748 53.561 1.03308 9.48517 2 
146.393 53.561 -0.83395 8.78225 2 
148.037 53.561 0.35836 10.41777 2 
149.682 53.561 3.62737 7.74996 2 
151.327 53.561 -5.56161 3.32348 2 
152.972 53.561 13.65052 8.85676 2 
-13.159 51.916 2.88978 6.50026 2 
-11.514 51.916 27.04024 -0.55739 2 
-9.869 51.916 16.25492 8.39051 2 
-8.224 51.916 -8.09944 1.37534 2 
-6.579 51.916 -0.58160 -5.22767 2 
-4.935 51.916 23.63659 -5.79940 2 
-3.290 51.916 18.99462 1.17340 2 
-1.645 51.916 9.28383 3.32725 2 
0.000 51.916 5.40944 -0.20751 2 
1.645 51.916 15.99507 9.02327 2 
3.290 51.916 7.28969 6.07665 2 
4.935 51.916 0.00000 -0.00000 0 
6.579 51.916 0.00000 -0.00000 0 
8.224 51.916 0.00000 -0.00000 0 
9.869 51.916 0.00000 -0.00000 0 
11.514 51.916 0.00000 -0.00000 0 
13.159 51.916 0.00000 -0.00000 0 
14.804 51.916 0.00000 -0.00000 0 
16.449 51.916 0.00000 -0.00000 0 
18.093 51.916 0.00000 -0.00000 0 
19.738 51.916 0.00000 -0.00000 0 
21.383 51.916 0.00000 -0.00000 0 
23.028 51.916 0.00000 -0.00000 0 
24.673 51.916 9.49747 3.45474 2 
26.318 51.916 18.99495 6.90947 2 
27.963 51.916 14.72114 0.11887 2 
29.607 51.916 13.42807 -7.77302 2 
31.252 51.916 5.54176 1.64282 2 
32.897 51.916 14.33731 20.89350 2 
34.542 51.916 2.17375 7.44127 2 
36.187 51.916 11.07990 -0.65668 2 
37.832 51.916 13.43437 4.48208 2 
39.477 51.916 0.57209 -0.03293 2 
41.121 51.916 9.47516 -10.31630 2 
42.766 51.916 12.43513 6.73455 2 
44.411 51.916 9.74278 8.16497 2 
46.056 51.916 13.59973 2.09858 2 
47.701 51.916 15.22439 16.23726 2 
49.346 51.916 12.65778 2.22246 2 
50.991 51.916 11.95837 -6.39401 2 
52.636 51.916 14.53109 5.04843 2 
54.280 51.916 25.53073 5.92351 2 
55.925 51.916 17.84618 0.44431 2 
57.570 51.916 7.45117 1.13591 2 
59.215 51.916 16.30018 6.11841 2 
60.860 51.916 13.48782 -2.84538 2 
62.505 51.916 11.21207 7.65149 2 
64.150 51.916 6.48834 22.66627 2 
65.794 51.916 6.46247 0.15819 2 
67.439 51.916 11.43566 -10.59200 2 
69.084 51.916 22.34800 0.92797 2 
70.729 51.916 1.43258 7.76366 2 
72.374 51.916 10.42373 1.70853 2 
74.019 51.916 23.78697 -10.27182 2 
75.664 51.916 8.14422 -3.39366 2 
77.308 51.916 23.90626 2.98381 2 
78.953 51.916 10.62742 4.49574 2 
80.598 51.916 -1.95093 1.00239 2 
82.243 51.916 4.28876 0.93695 2 
83.888 51.916 20.07993 2.15045 2 
85.533 51.916 13.00439 -12.58991 2 
87.178 51.916 10.08861 -7.22624 2 
88.822 51.916 10.47347 -5.42671 2 
90.467 51.916 13.80860 -6.82118 2 
92.112 51.916 6.63241 10.92863 2 
93.757 51.916 28.35838 11.46803 2 
95.402 51.916 19.54862 6.76573 2 
97.047 51.916 -4.46166 7.27788 2 
98.692 51.916 -12.64209 -0.60894 2 
100.336 51.916 -8.05076 -4.56637 2 
101.981 51.916 -17.08210 -3.02908 2 
103.626 51.916 0.00000 -0.00000 0 
105.271 51.916 0.00000 -0.00000 0 
106.916 51.916 0.00000 -0.00000 0 
108.561 51.916 0.00000 -0.00000 0 
110.206 51.916 0.00000 -0.00000 0 
111.850 51.916 10.24688 -10.40511 2 
113.495 51.916 3.58477 3.63939 2 
115.140 51.916 2.44030 8.30820 2 
116.785 51.916 19.72660 -0.59347 2 
118.430 51.916 21.11682 5.25831 2 
120.075 51.916 6.48755 -2.23798 2 
121.720 51.916 2.88445 1.75056 2 
123.364 51.916 14.83322 7.48315 2 
125.009 51.916 8.24966 0.70046 2 
126.654 51.916 2.43537 -11.99149 2 
128.299 51.916 6.84800 -14.32002 2 
129.944 51.916 11.67219 8.97512 2 
131.589 51.916 10.42928 5.07448 2 
133.234 51.916 5.62421 -3.34099 2 
134.879 51.916 4.21614 4.56104 2 
136.523 51.916 8.79800 13.42835 2 
138.168 51.916 16.43911 4.24558 2 
139.813 51.916 23.75479 -1.20444 2 
141.458 51.916 23.09829 3.86896 2 
143.103 51.916 21.49728 -8.63387 2 
144.748 51.916 8.32931 -3.04877 2 
146.393 51.916 12.45577 -0.64008 2 
148.037 51.916 20.85226 -8.85306 2 
149.682 51.916 10.83031 -2.89610 2 
151.327 51.916 7.60167 8.71421 2 
152.972 51.916 9.56718 4.69329 2 
-13.159 50.271 5.12828 2.33518 2 
-11.514 50.271 9.63972 -1.05222 2 
-9.869 50.271 8.61927 -1.32517 2 
-8.224 50.271 5.50762 -2.21524 2 
-6.579 50.271 12.02020 -3.40364 2 
-4.935 50.271 14.89320 -12.12988 2 
-3.290 50.271 5.22164 -2.36493 2 
-1.645 50.271 9.17351 1.52378 2 
0.000 50.271 8.95902 -3.95889 2 
1.645 50.271 17.54908 -7.33993 2 
3.290 50.271 9.60723 0.55670 2 
4.935 50.271 0.60788 14.75812 2 
6.579 50.271 0.00000 -0.00000 0 
8.224 50.271 0.00000 -0.00000 0 
9.869 50.271 0.00000 -0.00000 0 
11.514 50.271 0.00000 -0.00000 0 
13.159 50.271 0.00000 -0.00000 0 
14.804 50.271 0.00000 -0.00000 0 
16.449 50.271 0.00000 -0.00000 0 
18.093 50.271 0.00000 -0.00000 0 
19.738 50.271 0.00000 -0.00000 0 
21.383 50.271 0.00000 -0.00000 0 
23.028 50.271 0.00000 -0.00000 0 
24.673 50.271 15.53558 2.18873 2 
26.318 50.271 31.07117 4.37746 2 
27.963 50.271 2.95744 1.70087 2 
29.607 50.271 7.83901 -4.94309 2 
31.252 50.271 6.55831 -0.81346 2 
32.897 50.271 26.22593 -2.89334 2 
34.542 50.271 17.72884 1.89932 2 
36.187 50.271 12.05582 -5.83306 2 
37.832 50.271 5.83696 -9.16544 2 
39.477 50.271 12.70136 3.14297 2 
41.121 50.271 5.09757 -12.39814 2 
42.766 50.271 9.81964 -3.09547 2 
44.411 50.271 17.99098 2.20140 2 
46.056 50.271 14.59890 -12.88884 2 
47.701 50.271 2.35698 0.83304 2 
49.346 50.271 -1.87402 -2.64606 2 
50.991 50.271 15.94384 -10.64920 2 
52.636 50.271 18.85671 7.42638 2 
54.280 50.271 15.77744 11.12797 2 
55.925 50.271 12.08353 3.15526 2 
57.570 50.271 4.99507 5.89163 2 
59.215 50.271 3.35284 6.39462 2 
60.860 50.271 5.73772 2.78825 2 
62.505 50.271 11.96377 -0.59047 2 
64.150 50.271 15.09831 6.87706 2 
65.794 50.271 14.95804 12.84362 2 
67.439 50.271 5.58380 -2.55619 2 
69.084 50.271 3.90995 -1.95941 2 
70.729 50.271 -5.60069 0.97616 2 
72.374 50.271 6.89418 -3.08186 2 
74.019 50.271 10.29106 -2.64859 2 
75.664 50.271 -3.12706 4.88202 2 
77.308 50.271 16.15882 8.42039 2 
78.953 50.271 7.90328 0.05740 2 
80.598 50.271 -2.14014 -5.43171 2 
82.243 50.271 7.45623 -3.74440 2 
83.888 50.271 5.41611 -5.52786 2 
85.533 50.271 7.56129 -12.50375 2 
87.178 50.271 8.16897 -4.18265 2 
88.822 50.271 14.29253 0.52739 2 
90.467 50.271 7.77910 -3.52374 2 
92.112 50.271 2.36155 6.98538 2 
93.757 50.271 29.56079 3.62977 2 
95.402 50.271 16.15738 5.89268 2 
97.047 50.271 8.96373 10.93297 2 
98.692 50.271 6.08506 -6.02441 2 
100.336 50.271 7.98614 -3.77676 2 
101.981 50.271 0.03715 -7.38124 2 
103.626 50.271 0.00000 -0.00000 0 
105.271 50.271 0.00000 -0.00000 0 
106.916 50.271 0.00000 -0.00000 0 
108.561 50.271 0.00000 -0.00000 0 
110.206 50.271 0.00000 -0.00000 0 
111.850 50.271 4.21266 -8.70387 2 
113.495 50.271 11.35728 -3.34507 2 
115.140 50.271 12.90590 6.18075 2 
116.785 50.271 16.63278 14.37773 2 
118.430 50.271 19.48315 7.73373 2 
120.075 50.271 11.02431 5.07354 2 
121.720 50.271 10.11072 5.87562 2 
123.364 50.271 17.25914 0.92755 2 
125.009 50.271 11.49287 10.83733 2 
126.654 50.271 4.37121 0.88687 2 
128.299 50.271 1.95422 -15.13259 2 
129.944 50.271 3.53142 6.57869 2 
131.589 50.271 9.32832 12.20926 2 
133.234 50.271 11.62501 4.72056 2 
134.879 50.271 6.25285 -0.21764 2 
136.523 50.271 2.71847 -8.27349 2 
138.168 50.271 6.66117 -9.59873 2 
139.813 50.271 -1.07923 1.98099 2 
141.458 50.271 5.36932 -0.69116 2 
143.103 50.271 15.36861 -18.26998 2 
144.748 50.271 0.70253 -12.83733 2 
146.393 50.271 4.12428 -16.91553 2 
148.037 50.271 12.29538 -14.58459 2 
149.682 50.271 4.87846 3.93893 2 
151.327 50.271 -1.82427 6.77952 2 
152.972 50.271 -9.73440 1.20445 2 
-13.159 48.626 19.18615 3.73529 2 
-11.514 48.626 -7.89668 6.82531 2 
-9.869 48.626 8.21726 3.99000 2 
-8.224 48.626 20.17888 5.91889 2 
-6.579 48.626 15.26793 7.43939 2 
-4.935 48.626 9.83585 3.28280 2 
-3.290 48.626 5.15142 20.93015 2 
-1.645 48.626 12.13300 12.08045 2 
0.000 48.626 4.59599 -2.90361 2 
1.645 48.626 13.04012 2.86830 2 
3.290 48.626 15.03081 10.43320 2 
4.935 48.626 7.03861 11.23112 2 
6.579 48.626 0.00000 -0.00000 0 
8.224 48.626 0.00000 -0.00000 0 
9.869 48.626 0.00000 -0.00000 0 
11.514 48.626 0.00000 -0.00000 0 
13.159 48.626 0.00000 -0.00000 0 
14.804 48.626 0.00000 -0.00000 0 
16.449 48.626 0.00000 -0.00000 0 
18.093 48.626 0.00000 -0.00000 0 
19.738 48.626 0.00000 -0.00000 0 
21.383 48.626 0.00000 -0.00000 0 
23.028 48.626 0.00000 -0.00000 0 
24.673 48.626 12.91071 9.12720 2 
26.318 48.626 25.82142 18.25440 2 
27.963 48.626 11.98903 0.63592 2 
29.607 48.626 9.80723 -2.07947 2 
31.252 48.626 13.48954 3.37259 2 
32.897 48.626 9.38779 -3.81472 2 
34.542 48.626 -0.83708 0.14654 2 
36.187 48.626 16.42674 -7.26934 2 
37.832 48.626 11.92578 -1.24830 2 
39.477 48.626 18.38597 19.05681 2 
41.121 48.626 13.75531 -11.66693 2 
42.766 48.626 14.23408 -3.40317 2 
44.411 48.626 18.81164 17.10567 2 
46.056 48.626 24.17105 12.43852 2 
47.701 48.626 5.50252 12.23470 2 
49.346 48.626 1.44835 4.58618 2 
50.991 48.626 29.91389 1.70921 2 
52.636 48.626 17.08766 9.00892 2 
54.280 48.626 3.92794 13.59366 2 
55.925 48.626 3.46837 3.10471 2 
57.570 48.626 2.38275 3.41879 2 
59.215 48.626 9.42479 7.71891 2 
60.860 48.626 5.65226 0.92535 2 
62.505 48.626 -5.37297 -11.22752 2 
64.150 48.626 15.19798 -4.34567 2 
65.794 48.626 23.23510 10.68919 2 
67.439 48.626 15.91284 4.93095 2 
69.084 48.626 9.56390 4.88611 2 
70.729 48.626 11.90212 -5.38516 2 
72.374 48.626 12.68189 -3.93090 2 
74.019 48.626 4.74484 3.74872 2 
75.664 48.626 -0.83822 1.80734 2 
77.308 48.626 10.92231 1.69452 2 
78.953 48.626 7.39666 4.57360 2 
80.598 48.626 2.44824 4.26810 2 
82.243 48.626 8.75755 1.57304 2 
83.888 48.626 -0.37305 2.69803 2 
85.533 48.626 17.68883 -1.62161 2 
87.178 48.626 5.75443 0.68157 2 
88.822 48.626 -0.82679 2.21223 2 
90.467 48.626 -7.97251 -8.49437 2 
92.112 48.626 7.61818 -5.34385 2 
93.757 48.626 22.31194 -4.30604 2 
95.402 48.626 8.44075 -3.12936 2 
97.047 48.626 17.43874 2.11191 2 
98.692 48.626 24.27912 7.80649 2 
100.336 48.626 14.06108 0.02684 2 
101.981 48.626 12.92477 -16.33983 2 
103.626 48.626 19.18436 1.31047 2 
105.271 48.626 0.00000 -0.00000 0 
106.916 48.626 0.00000 -0.00000 0 
108.561 48.626 0.00000 -0.00000 0 
110.206 48.626 0.00000 -0.00000 0 
111.850 48.626 0.06274 9.39983 2 
113.495 48.626 15.49441 0.15687 2 
115.140 48.626 18.37248 -9.36887 2 
116.785 48.626 14.81825 2.13681 2 
118.430 48.626 20.99060 0.05044 2 
120.075 48.626 3.28624 16.04736 2 
121.720 48.626 10.64266 11.64818 2 
123.364 48.626 4.92542 -3.72595 2 
125.009 48.626 -2.66986 9.31042 2 
126.654 48.626 13.06976 5.83763 2 
128.299 48.626 4.94518 -6.16727 2 
129.944 48.626 10.33686 6.50867 2 
131.589 48.626 17.06085 2.73579 2 
133.234 48.626 15.10179 -13.13867 2 
134.879 48.626 16.43304 -1.88365 2 
136.523 48.626 2.58629 2.44562 2 
138.168 48.626 -0.10277 5.38426 2 
139.813 48.626 -1.81882 10.28641 2 
141.458 48.626 -0.38126 9.85362 2 
143.103 48.626 9.02342 -6.51698 2 
144.748 48.626 11.55662 -9.25822 2 
146.393 48.626 10.15905 -5.96520 2 
148.037 48.626 2.24123 -13.75041 2 
149.682 48.626 0.00284 -15.58728 2 
151.327 48.626 -11.17782 -6.38444 2 
152.972 48.626 -12.98839 2.32017 2 
-13.159 46.981 19.34613 -0.57475 2 
-11.514 46.981 3.51793 -0.49471 2 
-9.869 46.981 18.82639 -1.47724 2 
-8.224 46.981 10.77995 -2.70409 2 
-6.579 46.981 11.45115 3.73898 2 
-4.935 46.981 5.55605 4.26762 2 
-3.290 46.981 2.99785 2.09776 2 
-1.645 46.981 12.53660 6.81426 2 
0.000 46.981 -0.02891 -2.29576 2 
1.645 46.981 3.19114 2.04456 2 
3.290 46.981 14.68067 4.29241 2 
4.935 46.981 13.80754 8.97011 2 
6.579 46.981 0.00000 -0.00000 0 
8.224 46.981 0.00000 -0.00000 0 
9.869 46.981 0.00000 -0.00000 0 
11.514 46.981 0.00000 -0.00000 0 
13.159 46.981 0.00000 -0.00000 0 
14.804 46.981 0.00000 -0.00000 0 
16.449 46.981 0.00000 -0.00000 0 
18.093 46.981 0.00000 -0.00000 0 
19.738 46.981 0.00000 -0.00000 0 
21.383 46.981 0.00000 -0.00000 0 
23.028 46.981 0.00000 -0.00000 0 
24.673 46.981 3.02045 9.33225 2 
26.318 46.981 6.04090 18.66451 2 
27.963 46.981 17.69878 10.36771 2 
29.607 46.981 14.03282 -11.21572 2 
31.252 46.981 3.81077 -4.77864 2 
32.897 46.981 10.86536 1.33576 2 
34.542 46.981 7.07622 7.22604 2 
36.187 46.981 24.90001 9.58085 2 
37.832 46.981 19.09704 5.35786 2 
39.477 46.981 12.20856 5.70340 2 
41.121 46.981 23.23859 1.02442 2 
42.766 46.981 11.03544 -2.60565 2 
44.411 46.981 0.87556 -0.09420 2 
46.056 46.981 8.34975 -6.33180 2 
47.701 46.981 11.25538 -2.63751 2 
49.346 46.981 7.77780 13.81947 2 
50.991 46.981 15.41222 2.66430 2 
52.636 46.981 5.41790 -9.87435 2 
54.280 46.981 1.80814 -3.94832 2 
55.925 46.981 1.89994 -0.78849 2 
57.570 46.981 11.13000 2.53925 2 
59.215 46.981 18.17517 11.68631 2 
60.860 46.981 14.24195 8.39762 2 
62.505 46.981 -9.53282 -9.04901 2 
64.150 46.981 -0.94769 -5.15007 2 
65.794 46.981 8.24731 11.67509 2 
67.439 46.981 19.47461 23.72690 2 
69.084 46.981 20.26781 22.56926 2 
70.729 46.981 7.33923 1.87006 2 
72.374 46.981 10.21917 0.38639 2 
74.019 46.981 14.76985 5.71687 2 
75.664 46.981 27.27944 -10.63141 2 
77.308 46.981 16.84356 -10.65471 2 
78.953 46.981 -4.25317 2.29628 2 
80.598 46.981 10.88542 2.14302 2 
82.243 46.981 20.45466 -16.69379 2 
83.888 46.981 -2.16952 -21.58756 2 
85.533 46.981 1.78298 0.67052 2 
87.178 46.981 -0.55627 6.79890 2 
88.822 46.981 -12.58998 -5.13583 2 
90.467 46.981 1.30769 3.40551 2 
92.112 46.981 15.14247 4.06853 2 
93.757 46.981 13.65536 -8.12255 2 
95.402 46.981 -0.54354 -4.33054 2 
97.047 46.981 11.87405 -13.17883 2 
98.692 46.981 23.96830 -1.74687 2 
100.336 46.981 7.87962 -3.05547 2 
101.981 46.981 -6.12455 -12.14824 2 
103.626 46.981 17.36144 -0.94229 2 
105.271 46.981 0.00000 -0.00000 0 
106.916 46.981 0.00000 -0.00000 0 
108.561 46.981 0.00000 -0.00000 0 
110.206 46.981 0.00000 -0.00000 0 
111.850 46.981 3.96528 7.56985 2 
113.495 46.981 20.10204 2.50503 2 
115.140 46.981 18.84739 -10.14366 2 
116.785 46.981 3.33085 -3.07730 2 
118.430 46.981 17.12183 -0.14672 2 
120.075 46.981 6.09014 -7.05824 2 
121.720 46.981 5.68021 -8.12907 2 
123.364 46.981 5.79913 -4.61997 2 
125.009 46.981 -0.36979 -0.71061 2 
126.654 46.981 3.76756 13.77843 2 
128.299 46.981 -7.55306 12.46893 2 
129.944 46.981 3.32228 -4.43159 2 
131.589 46.981 16.81597 -8.70588 2 
133.234 46.981 18.50773 -9.76852 2 
134.879 46.981 6.38123 6.58678 2 
136.523 46.981 2.18202 11.45848 2 
138.168 46.981 13.63071 -2.38659 2 
139.813 46.981 14.58789 1.46133 2 
141.458 46.981 10.20142 13.24600 2 
143.103 46.981 7.94005 0.87409 2 
144.748 46.981 10.42608 -6.73830 2 
146.393 46.981 9.42525 8.11678 2 
148.037 46.981 7.07309 6.65406 2 
149.682 46.981 1.95115 3.05453 2 
151.327 46.981 2.20236 -5.62035 2 
152.972 46.981 -23.72359 0.10832 2 
-13.159 45.336 13.22466 -0.18177 2 
-11.514 45.336 13.81121 7.49625 2 
-9.869 45.336 9.33909 6.88334 2 
-8.224 45.336 -3.34769 0.40972 2 
-6.579 45.336 13.34907 -5.42425 2 
-4.935 45.336 -2.87552 -13.50520 2 
-3.290 45.336 -8.81728 -10.51254 2 
-1.645 45.336 15.48174 20.16928 2 
0.000 45.336 15.18562 9.28866 2 
1.645 45.336 11.57352 -3.60903 2 
3.290 45.336 9.67500 1.63455 2 
4.935 45.336 18.78751 -0.02232 2 
6.579 45.336 0.00000 -0.00000 0 
8.224 45.336 0.00000 -0.00000 0 
9.869 45.336 0.00000 -0.00000 0 
11.514 45.336 0.00000 -0.00000 0 
13.159 45.336 0.00000 -0.00000 0 
14.804 45.336 0.00000 -0.00000 0 
16.449 45.336 0.00000 -0.00000 0 
18.093 45.336 0.00000 -0.00000 0 
19.738 45.336 0.00000 -0.00000 0 
21.383 45.336 0.00000 -0.00000 0 
23.028 45.336 0.00000 -0.00000 0 
24.673 45.336 -8.24828 -19.52944 2 
26.318 45.336 -3.90691 3.40497 2 
27.963 45.336 15.53627 6.27353 2 
29.607 45.336 18.28559 2.91595 2 
31.252 45.336 5.84535 0.73504 2 
32.897 45.336 18.26454 -12.09343 2 
34.542 45.336 27.38647 -10.64467 2 
36.187 45.336 23.84314 0.10783 2 
37.832 45.336 20.00705 -0.70013 2 
39.477 45.336 6.58219 0.02455 2 
41.121 45.336 5.53930 -9.41345 2 
42.766 45.336 3.94185 -11.11657 2 
44.411 45.336 3.45491 5.11115 2 
46.056 45.336 1.35174 3.35762 2 
47.701 45.336 12.15634 4.09986 2 
49.346 45.336 9.50908 11.55060 2 
50.991 45.336 0.98454 4.20496 2 
52.636 45.336 -5.89375 -5.24934 2 
54.280 45.336 1.02196 1.73166 2 
55.925 45.336 4.96576 1.55542 2 
57.570 45.336 13.07180 -2.44023 2 
59.215 45.336 12.09540 6.62130 2 
60.860 45.336 14.42910 6.80540 2 
62.505 45.336 0.03126 -6.84195 2 
64.150 45.336 -1.07385 7.46371 2 
65.794 45.336 -0.09078 11.76715 2 
67.439 45.336 0.60572 4.00386 2 
69.084 45.336 4.72579 9.99926 2 
70.729 45.336 0.93750 0.53013 2 
72.374 45.336 -4.22241 -0.67432 2 
74.019 45.336 7.93928 8.88748 2 
75.664 45.336 24.48364 8.14943 2 
77.308 45.336 12.45042 15.68010 2 
78.953 45.336 -8.09935 5.02056 2 
80.598 45.336 5.57095 -4.99320 2 
82.243 45.336 -0.41340 -0.04891 2 
83.888 45.336 -7.76983 0.10304 2 
85.533 45.336 0.70529 -0.90499 2 
87.178 45.336 -1.66760 -3.98315 2 
88.822 45.336 -2.88479 -6.22805 2 
90.467 45.336 20.18389 -3.47138 2 
92.112 45.336 21.98847 -0.58067 2 
93.757 45.336 15.86533 3.89211 2 
95.402 45.336 10.74386 4.60005 2 
97.047 45.336 20.43661 -7.71405 2 
98.692 45.336 15.58760 -14.16546 2 
100.336 45.336 -6.78268 -14.48140 2 
101.981 45.336 -6.57703 -12.29944 2 
103.626 45.336 15.53852 -3.19505 2 
105.271 45.336 0.00000 -0.00000 0 
106.916 45.336 0.00000 -0.00000 0 
108.561 45.336 0.00000 -0.00000 0 
110.206 45.336 0.00000 -0.00000 0 
111.850 45.336 0.31679 2.38876 2 
113.495 45.336 16.99019 1.34541 2 
115.140 45.336 25.06975 4.01352 2 
116.785 45.336 9.45839 8.16354 2 
118.430 45.336 14.72985 1.50652 2 
120.075 45.336 12.26897 -8.08847 2 
121.720 45.336 8.67373 -11.84102 2 
123.364 45.336 10.20490 -9.85397 2 
125.009 45.336 12.42904 -1.50927 2 
126.654 45.336 13.32801 6.56048 2 
128.299 45.336 8.04810 1.52665 2 
129.944 45.336 11.01499 -11.24866 2 
131.589 45.336 6.62313 -7.28054 2 
133.234 45.336 12.12720 3.27849 2 
134.879 45.336 11.66163 3.48074 2 
136.523 45.336 14.51674 2.47581 2 
138.168 45.336 8.00003 -2.22286 2 
139.813 45.336 10.72338 2.94340 2 
141.458 45.336 11.51363 1.28469 2 
143.103 45.336 11.00216 -8.52396 2 
144.748 45.336 -4.91991 -6.61331 2 
146.393 45.336 -3.68616 -11.49657 2 
148.037 45.336 13.09044 -4.79599 2 
149.682 45.336 5.06015 14.87370 2 
151.327 45.336 10.43267 12.86866 2 
152.972 45.336 2.38992 2.41687 2 
-13.159 43.692 7.54118 -2.99261 2 
-11.514 43.692 14.36541 -4.45059 2 
-9.869 43.692 14.33933 -1.54472 2 
-8.224 43.692 4.64862 -0.16329 2 
-6.579 43.692 6.19707 0.08818 2 
-4.935 43.692 -2.43862 9.45944 2 
-3.290 43.692 0.92623 11.27453 2 
-1.645 43.692 11.71437 0.67203 2 
0.000 43.692 11.79478 7.02203 2 
1.645 43.692 15.16157 -2.47078 2 
3.290 43.692 4.13741 -3.09506 2 
4.935 43.692 20.58286 9.71517 2 
6.579 43.692 0.00000 -0.00000 0 
8.224 43.692 0.00000 -0.00000 0 
9.869 43.692 0.00000 -0.00000 0 
11.514 43.692 0.00000 -0.00000 0 
13.159 43.692 0.00000 -0.00000 0 
14.804 43.692 0.00000 -0.00000 0 
16.449 43.692 0.00000 -0.00000 0 
18.093 43.692 0.00000 -0.00000 0 
19.738 43.692 0.00000 -0.00000 0 
21.383 43.692 0.00000 -0.00000 0 
23.028 43.692 0.00000 -0.00000 0 
24.673 43.692 -13.42929 -4.04958 2 
26.318 43.692 3.23432 4.36657 2 
27.963 43.692 27.75785 -1.40150 2 
29.607 43.692 15.95584 12.66090 2 
31.252 43.692 13.36887 13.23695 2 
32.897 43.692 13.33220 -12.53363 2 
34.542 43.692 14.75164 -8.30953 2 
36.187 43.692 24.24071 2.10579 2 
37.832 43.692 17.35342 4.44394 2 
39.477 43.692 10.41671 4.98019 2 
41.121 43.692 12.42794 1.24874 2 
42.766 43.692 1.70559 6.98171 2 
44.411 43.692 6.10911 14.10236 2 
46.056 43.692 6.68590 4.38613 2 
47.701 43.692 16.96494 8.52226 2 
49.346 43.692 17.11812 -0.09049 2 
50.991 43.692 9.99477 -12.68525 2 
52.636 43.692 2.58782 -2.82407 2 
54.280 43.692 -0.48399 3.44877 2 
55.925 43.692 14.01556 3.60296 2 
57.570 43.692 11.33118 -1.37236 2 
59.215 43.692 11.79167 -5.35952 2 
60.860 43.692 28.82304 -5.55293 2 
62.505 43.692 4.43882 -2.41187 2 
64.150 43.692 -5.85747 3.68981 2 
65.794 43.692 2.72420 -2.71553 2 
67.439 43.692 -1.10958 1.30016 2 
69.084 43.692 11.05351 4.04687 2 
70.729 43.692 13.10343 3.64484 2 
72.374 43.692 11.72789 -4.92790 2 
74.019 43.692 20.39358 -1.03405 2 
75.664 43.692 15.06968 9.34353 2 
77.308 43.692 6.05808 4.97390 2 
78.953 43.692 14.30033 -1.96373 2 
80.598 43.692 8.25600 -2.93096 2 
82.243 43.692 -10.15233 23.36480 2 
83.888 43.692 -2.21155 21.02460 2 
85.533 43.692 12.05009 4.03221 2 
87.178 43.692 5.61649 4.14146 2 
88.822 43.692 -3.78542 1.69656 2 
90.467 43.692 14.17833 -4.96888 2 
92.112 43.692 15.79505 -14.96604 2 
93.757 43.692 11.21615 -3.28110 2 
95.402 43.692 21.20528 5.72409 2 
97.047 43.692 16.41859 -5.12881 2 
98.692 43.692 -5.63050 -5.39383 2 
100.336 43.692 8.28155 0.27305 2 
101.981 43.692 12.86132 1.34150 2 
103.626 43.692 22.38213 -0.85335 2 
105.271 43.692 0.00000 -0.00000 0 
106.916 43.692 0.00000 -0.00000 0 
108.561 43.692 0.00000 -0.00000 0 
110.206 43.692 0.00000 -0.00000 0 
111.850 43.692 0.87525 -2.45536 2 
113.495 43.692 8.96931 7.87358 2 
115.140 43.692 16.76099 14.62041 2 
116.785 43.692 9.94288 -0.83213 2 
118.430 43.692 19.58239 -2.93634 2 
120.075 43.692 16.37526 -4.45422 2 
121.720 43.692 11.58949 -7.88982 2 
123.364 43.692 14.75009 -10.72124 2 
125.009 43.692 5.13881 -3.76785 2 
126.654 43.692 18.06624 7.54958 2 
128.299 43.692 21.20223 -6.16844 2 
129.944 43.692 14.50069 -12.17840 2 
131.589 43.692 8.08761 -9.14182 2 
133.234 43.692 12.36951 -10.03428 2 
134.879 43.692 21.10149 -0.51627 2 
136.523 43.692 16.91783 -0.49279 2 
138.168 43.692 4.89674 -1.30345 2 
139.813 43.692 7.28361 6.21364 2 
141.458 43.692 10.14863 3.22454 2 
143.103 43.692 -1.67693 -4.85761 2 
144.748 43.692 1.75133 -10.92857 2 
146.393 43.692 17.12686 -16.30565 2 
148.037 43.692 17.16356 -10.38522 2 
149.682 43.692 14.64033 2.39517 2 
151.327 43.692 8.47839 0.99259 2 
152.972 43.692 10.63902 0.48112 2 
-13.159 42.047 7.38722 -7.44217 2 
-11.514 42.047 15.86754 -14.01955 2 
-9.869 42.047 13.27940 -6.60953 2 
-8.224 42.047 23.73324 -4.88019 2 
-6.579 42.047 12.15399 11.20285 2 
-4.935 42.047 -4.15230 16.25196 2 
-3.290 42.047 0.51704 -2.74833 2 
-1.645 42.047 7.05917 -9.58459 2 
0.000 42.047 -1.28692 5.67236 2 
1.645 42.047 10.08283 4.77944 2 
3.290 42.047 18.34032 -2.81139 2 
4.935 42.047 26.83614 8.73745 2 
6.579 42.047 0.00000 -0.00000 0 
8.224 42.047 0.00000 -0.00000 0 
9.869 42.047 0.00000 -0.00000 0 
11.514 42.047 0.00000 -0.00000 0 
13.159 42.047 0.00000 -0.00000 0 
14.804 42.047 0.00000 -0.00000 0 
16.449 42.047 0.00000 -0.00000 0 
18.093 42.047 0.00000 -0.00000 0 
19.738 42.047 0.00000 -0.00000 0 
21.383 42.047 0.00000 -0.00000 0 
23.028 42.047 0.00000 -0.00000 0 
24.673 42.047 -18.61030 11.43027 2 
26.318 42.047 15.42892 -5.29692 2 
27.963 42.047 8.50928 0.34890 2 
29.607 42.047 21.26575 2.89213 2 
31.252 42.047 12.23112 -1.26133 2 
32.897 42.047 16.66295 -4.81557 2 
34.542 42.047 13.67619 2.13808 2 
36.187 42.047 23.30569 0.27279 2 
37.832 42.047 14.97038 5.52326 2 
39.477 42.047 0.58422 8.53574 2 
41.121 42.047 12.81867 6.24156 2 
42.766 42.047 12.18899 3.83731 2 
44.411 42.047 5.38508 4.49336 2 
46.056 42.047 9.74469 0.71571 2 
47.701 42.047 25.50858 4.28837 2 
49.346 42.047 22.23747 -2.34364 2 
50.991 42.047 9.56927 -11.33199 2 
52.636 42.047 14.98146 15.99346 2 
54.280 42.047 1.93527 11.08120 2 
55.925 42.047 12.24919 12.23023 2 
57.570 42.047 10.40561 3.44968 2 
59.215 42.047 1.96420 -13.71397 2 
60.860 42.047 21.23930 -5.67438 2 
62.505 42.047 7.05670 3.96823 2 
64.150 42.047 -6.19560 9.23296 2 
65.794 42.047 4.71284 -6.18417 2 
67.439 42.047 6.98310 -6.63687 2 
69.084 42.047 16.70684 2.93843 2 
70.729 42.047 15.51520 5.59292 2 
72.374 42.047 9.80420 -8.77393 2 
74.019 42.047 6.46270 -6.93497 2 
75.664 42.047 10.22473 4.22108 2 
77.308 42.047 9.07458 -5.56524 2 
78.953 42.047 12.38054 -13.19887 2 
80.598 42.047 13.32485 -7.62518 2 
82.243 42.047 14.19578 7.59566 2 
83.888 42.047 16.68678 4.23416 2 
85.533 42.047 8.78295 8.29279 2 
87.178 42.047 5.33506 4.62172 2 
88.822 42.047 0.78004 -1.51950 2 
90.467 42.047 16.10054 -2.71070 2 
92.112 42.047 17.20444 -4.00569 2 
93.757 42.047 7.80672 4.88304 2 
95.402 42.047 7.56595 2.68358 2 
97.047 42.047 -0.56316 -2.78732 2 
98.692 42.047 1.56735 -10.45901 2 
100.336 42.047 15.59512 -16.04875 2 
101.981 42.047 9.92265 -21.74028 2 
103.626 42.047 29.22574 1.48835 2 
105.271 42.047 0.00000 -0.00000 0 
106.916 42.047 0.00000 -0.00000 0 
108.561 42.047 0.00000 -0.00000 0 
110.206 42.047 0.00000 -0.00000 0 
111.850 42.047 4.86345 11.39071 2 
113.495 42.047 7.82362 6.81098 2 
115.140 42.047 12.25454 -1.63947 2 
116.785 42.047 3.27721 0.51407 2 
118.430 42.047 8.73589 7.29812 2 
120.075 42.047 9.38853 6.40515 2 
121.720 42.047 16.49853 7.97811 2 
123.364 42.047 27.01033 2.11870 2 
125.009 42.047 1.26625 -3.73379 2 
126.654 42.047 8.01583 -0.37930 2 
128.299 42.047 26.70088 2.56237 2 
129.944 42.047 6.69335 -2.74181 2 
131.589 42.047 0.02246 -8.14675 2 
133.234 42.047 5.78643 -4.40845 2 
134.879 42.047 10.54353 -1.57458 2 
136.523 42.047 8.05455 -7.91860 2 
138.168 42.047 4.29186 3.13107 2 
139.813 42.047 6.78827 12.02576 2 
141.458 42.047 3.62310 2.54479 2 
143.103 42.047 1.75561 -7.10679 2 
144.748 42.047 6.17472 -4.27654 2 
146.393 42.047 19.99728 4.57673 2 
148.037 42.047 11.19282 -5.41823 2 
149.682 42.047 12.60655 -9.09164 2 
151.327 42.047 17.06709 0.83348 2 
152.972 42.047 22.80366 3.75049 2 
-13.159 40.402 11.41412 -2.42278 2 
-11.514 40.402 20.88137 -6.15113 2 
-9.869 40.402 17.06228 5.31662 2 
-8.224 40.402 19.50595 2.12508 2 
-6.579 40.402 10.15200 -1.23205 2 
-4.935 40.402 4.16212 4.06460 2 
-3.290 40.402 6.74527 -4.36224 2 
-1.645 40.402 5.66451 -4.17525 2 
0.000 40.402 5.81362 12.42779 2 
1.645 40.402 9.92604 21.71871 2 
3.290 40.402 19.65539 15.02965 2 
4.935 40.402 16.15149 -7.53201 2 
6.579 40.402 0.00000 -0.00000 0 
8.224 40.402 0.00000 -0.00000 0 
9.869 40.402 0.00000 -0.00000 0 
11.514 40.402 0.00000 -0.00000 0 
13.159 40.402 0.00000 -0.00000 0 
14.804 40.402 0.00000 -0.00000 0 
16.449 40.402 0.00000 -0.00000 0 
18.093 40.402 0.00000 -0.00000 0 
19.738 40.402 0.00000 -0.00000 0 
21.383 40.402 0.00000 -0.00000 0 
23.028 40.402 0.00000 -0.00000 0 
24.673 40.402 -18.21695 -6.50826 2 
26.318 40.402 8.57594 -7.56520 2 
27.963 40.402 -13.10443 7.05475 2 
29.607 40.402 17.51088 2.65155 2 
31.252 40.402 22.91485 -7.99411 2 
32.897 40.402 15.12597 -0.36769 2 
34.542 40.402 14.47455 3.25517 2 
36.187 40.402 21.18936 -2.55978 2 
37.832 40.402 18.28218 -4.57382 2 
39.477 40.402 7.66479 0.24515 2 
41.121 40.402 5.43633 -2.60632 2 
42.766 40.402 10.34470 -6.25432 2 
44.411 40.402 10.67222 3.35313 2 
46.056 40.402 12.67369 -4.93590 2 
47.701 40.402 20.23121 -3.26396 2 
49.346 40.402 5.86794 -5.84108 2 
50.991 40.402 -4.06102 -17.88199 2 
52.636 40.402 16.41098 13.37022 2 
54.280 40.402 3.06095 21.25862 2 
55.925 40.402 10.01703 7.99887 2 
57.570 40.402 18.25800 0.08815 2 
59.215 40.402 9.02900 -3.86017 2 
60.860 40.402 18.24852 -3.66348 2 
62.505 40.402 13.67965 6.72726 2 
64.150 40.402 7.84505 11.39594 2 
65.794 40.402 2.99992 -1.33531 2 
67.439 40.402 6.85271 2.49175 2 