TITLE = "B00006"
VARIABLES = "X [mm]", "Y [mm]", "Vx [m/s]", "Vy [m/s]", "Flag"
ZONE T="Frame 1", I=102, J=77, F=POINT
-13.159 53.561 0.00000 -0.00000 0 
-11.514 53.561 10.13879 0.22790 2 
-9.869 53.561 9.89674 0.10711 2 
-8.224 53.561 9.94256 -0.12153 2 
-6.579 53.561 9.84538 0.00382 2 
-4.935 53.561 9.84059 0.12536 2 
-3.290 53.561 9.94595 -0.00198 2 
-1.645 53.561 9.84164 -0.09588 2 
0.000 53.561 9.96596 -0.02593 2 
1.645 53.561 10.14484 -0.05846 2 
3.290 53.561 10.26591 -0.04062 2 
4.935 53.561 0.00000 -0.00000 0 
6.579 53.561 0.00000 -0.00000 0 
8.224 53.561 0.00000 -0.00000 0 
9.869 53.561 0.00000 -0.00000 0 
11.514 53.561 0.00000 -0.00000 0 
13.159 53.561 0.00000 -0.00000 0 
14.804 53.561 0.00000 -0.00000 0 
16.449 53.561 0.00000 -0.00000 0 
18.093 53.561 0.00000 -0.00000 0 
19.738 53.561 0.00000 -0.00000 0 
21.383 53.561 0.00000 -0.00000 0 
23.028 53.561 0.00000 -0.00000 0 
24.673 53.561 0.03443 0.26498 2 
26.318 53.561 0.06886 0.52996 2 
27.963 53.561 2.17643 0.56561 2 
29.607 53.561 3.89159 0.60748 2 
31.252 53.561 6.08206 0.49689 2 
32.897 53.561 8.27252 0.38630 2 
34.542 53.561 10.46299 0.27571 2 
36.187 53.561 10.20661 -0.06237 2 
37.832 53.561 10.19758 -0.11655 2 
39.477 53.561 10.18855 -0.17074 2 
41.121 53.561 10.17952 -0.22492 2 
42.766 53.561 10.17048 -0.27911 2 
44.411 53.561 10.16145 -0.33329 2 
46.056 53.561 10.15242 -0.38748 2 
47.701 53.561 10.14339 -0.44166 2 
49.346 53.561 10.15057 -0.42253 2 
50.991 53.561 10.15776 -0.40339 2 
52.636 53.561 10.16494 -0.38426 2 
54.280 53.561 10.17212 -0.36513 2 
55.925 53.561 10.17930 -0.34599 2 
57.570 53.561 10.18648 -0.32686 2 
59.215 53.561 10.19366 -0.30773 2 
60.860 53.561 10.12335 -0.32805 2 
62.505 53.561 10.07380 -0.39088 2 
64.150 53.561 9.94077 -0.37319 2 
65.794 53.561 10.02040 -0.30374 2 
67.439 53.561 10.07191 -0.35015 2 
69.084 53.561 10.12126 -0.36804 2 
70.729 53.561 10.09282 -0.26151 2 
72.374 53.561 10.24742 -0.27103 2 
74.019 53.561 10.22398 -0.33434 2 
75.664 53.561 9.99316 -0.35161 2 
77.308 53.561 9.92046 -0.33357 2 
78.953 53.561 10.18744 -0.28594 2 
80.598 53.561 10.17697 -0.27336 2 
82.243 53.561 10.31926 -0.26634 2 
83.888 53.561 10.42440 -0.28026 2 
85.533 53.561 10.18565 -0.21661 2 
87.178 53.561 10.16524 -0.17101 2 
88.822 53.561 10.05680 -0.17998 2 
90.467 53.561 10.15462 -0.13464 2 
92.112 53.561 10.27260 -0.27554 2 
93.757 53.561 10.27374 -0.26363 2 
95.402 53.561 10.20585 -0.19452 2 
97.047 53.561 10.06642 -0.29006 2 
98.692 53.561 9.62550 -0.31352 2 
100.336 53.561 6.41700 -0.20902 2 
101.981 53.561 3.20850 -0.10451 2 
103.626 53.561 0.00000 -0.00000 0 
105.271 53.561 0.00000 -0.00000 0 
106.916 53.561 0.00000 -0.00000 0 
108.561 53.561 0.00000 -0.00000 0 
110.206 53.561 0.00000 -0.00000 0 
111.850 53.561 -0.12867 -0.27589 2 
113.495 53.561 -0.22416 -0.13341 2 
115.140 53.561 10.55659 -0.09984 2 
116.785 53.561 10.08767 -0.16320 2 
118.430 53.561 9.86964 -0.23435 2 
120.075 53.561 10.03117 -0.17888 2 
121.720 53.561 10.00721 -0.13408 2 
123.364 53.561 9.74561 -0.05548 2 
125.009 53.561 9.76445 -0.01499 2 
126.654 53.561 9.80341 -0.03848 2 
128.299 53.561 9.95980 -0.14294 2 
129.944 53.561 10.05363 -0.14514 2 
131.589 53.561 9.45761 -0.15166 2 
133.234 53.561 9.49579 -0.14565 2 
134.879 53.561 9.80773 -0.08413 2 
136.523 53.561 10.12907 0.01823 2 
138.168 53.561 9.83332 0.04423 2 
139.813 53.561 9.82262 -0.05825 2 
141.458 53.561 9.55248 -0.16868 2 
143.103 53.561 9.76953 -0.16094 2 
144.748 53.561 10.23419 -0.07818 2 
146.393 53.561 9.89048 -0.02336 2 
148.037 53.561 9.74243 0.09953 2 
149.682 53.561 9.21207 0.10475 2 
151.327 53.561 9.51861 0.04461 2 
152.972 53.561 0.00000 -0.00000 0 
-13.159 51.916 0.00000 -0.00000 0 
-11.514 51.916 9.72163 0.35758 2 
-9.869 51.916 10.02091 0.39073 2 
-8.224 51.916 9.98814 0.07882 2 
-6.579 51.916 9.92926 0.10052 2 
-4.935 51.916 9.85319 0.28753 2 
-3.290 51.916 9.92950 0.31404 2 
-1.645 51.916 9.81976 0.05175 2 
0.000 51.916 9.83303 0.08922 2 
1.645 51.916 9.98309 -0.03365 2 
3.290 51.916 10.40755 0.05036 2 
4.935 51.916 0.00000 -0.00000 0 
6.579 51.916 0.00000 -0.00000 0 
8.224 51.916 0.00000 -0.00000 0 
9.869 51.916 0.00000 -0.00000 0 
11.514 51.916 0.00000 -0.00000 0 
13.159 51.916 0.00000 -0.00000 0 
14.804 51.916 0.00000 -0.00000 0 
16.449 51.916 0.00000 -0.00000 0 
18.093 51.916 0.00000 -0.00000 0 
19.738 51.916 0.00000 -0.00000 0 
21.383 51.916 0.00000 -0.00000 0 
23.028 51.916 0.00000 -0.00000 0 
24.673 51.916 -0.02863 -0.11991 2 
26.318 51.916 -0.22765 0.25942 2 
27.963 51.916 1.11810 0.01061 2 
29.607 51.916 5.02144 0.22745 2 
31.252 51.916 8.24669 0.32710 2 
32.897 51.916 8.95504 0.28430 2 
34.542 51.916 10.41760 0.17660 2 
36.187 51.916 10.17635 0.30206 2 
37.832 51.916 10.26746 0.17720 2 
39.477 51.916 10.32200 0.16607 2 
41.121 51.916 10.36323 0.15720 2 
42.766 51.916 10.07324 0.22708 2 
44.411 51.916 10.00991 0.00642 2 
46.056 51.916 10.02662 0.12962 2 
47.701 51.916 10.31193 0.04586 2 
49.346 51.916 10.06669 0.08495 2 
50.991 51.916 9.99022 0.04064 2 
52.636 51.916 10.43865 0.08869 2 
54.280 51.916 10.25862 0.11631 2 
55.925 51.916 10.20158 0.05419 2 
57.570 51.916 10.16940 0.18066 2 
59.215 51.916 10.29146 0.17986 2 
60.860 51.916 10.02995 -0.03218 2 
62.505 51.916 10.29122 -0.07426 2 
64.150 51.916 10.36718 0.12161 2 
65.794 51.916 9.80575 0.06240 2 
67.439 51.916 9.94974 -0.12328 2 
69.084 51.916 10.26605 -0.06096 2 
70.729 51.916 10.26717 -0.00981 2 
72.374 51.916 10.46875 0.01781 2 
74.019 51.916 10.02926 -0.01736 2 
75.664 51.916 10.14586 -0.10624 2 
77.308 51.916 10.02223 -0.05582 2 
78.953 51.916 10.26281 0.17487 2 
80.598 51.916 10.08346 -0.04015 2 
82.243 51.916 10.28181 -0.25360 2 
83.888 51.916 10.26482 -0.38827 2 
85.533 51.916 9.97769 -0.38794 2 
87.178 51.916 9.89515 -0.10285 2 
88.822 51.916 10.08237 -0.08125 2 
90.467 51.916 10.18801 -0.44856 2 
92.112 51.916 9.95843 -0.38918 2 
93.757 51.916 10.01798 -0.27565 2 
95.402 51.916 9.94782 -0.33242 2 
97.047 51.916 10.30916 -0.30235 2 
98.692 51.916 10.27972 -0.19169 2 
100.336 51.916 9.10384 0.15835 2 
101.981 51.916 -0.18231 -0.10233 2 
103.626 51.916 0.00000 -0.00000 0 
105.271 51.916 0.00000 -0.00000 0 
106.916 51.916 0.00000 -0.00000 0 
108.561 51.916 0.00000 -0.00000 0 
110.206 51.916 0.00000 -0.00000 0 
111.850 51.916 0.06757 -0.09432 2 
113.495 51.916 -0.24058 -0.30888 2 
115.140 51.916 10.41152 -0.17942 2 
116.785 51.916 10.10176 -0.51864 2 
118.430 51.916 9.96504 -0.05805 2 
120.075 51.916 9.68194 0.00347 2 
121.720 51.916 9.89477 -0.14166 2 
123.364 51.916 9.74161 -0.21007 2 
125.009 51.916 9.85429 -0.40002 2 
126.654 51.916 9.95008 -0.21973 2 
128.299 51.916 9.80395 -0.30523 2 
129.944 51.916 10.17174 -0.18043 2 
131.589 51.916 9.53983 -0.41265 2 
133.234 51.916 9.66867 -0.20184 2 
134.879 51.916 9.87635 -0.10755 2 
136.523 51.916 10.06913 -0.19946 2 
138.168 51.916 10.00112 -0.40397 2 
139.813 51.916 9.66928 -0.53313 2 
141.458 51.916 9.49531 -0.35109 2 
143.103 51.916 10.17139 0.01768 2 
144.748 51.916 9.43167 -0.23097 2 
146.393 51.916 9.39775 0.01560 2 
148.037 51.916 10.00148 0.03351 2 
149.682 51.916 9.63468 -0.02395 2 
151.327 51.916 9.63807 -0.26878 2 
152.972 51.916 0.00000 -0.00000 0 
-13.159 50.271 0.00000 -0.00000 0 
-11.514 50.271 9.64331 0.18609 2 
-9.869 50.271 9.93879 0.02920 2 
-8.224 50.271 9.88293 0.02158 2 
-6.579 50.271 9.92831 -0.02712 2 
-4.935 50.271 9.78188 -0.03255 2 
-3.290 50.271 9.88368 0.09335 2 
-1.645 50.271 9.96704 0.24255 2 
0.000 50.271 9.87110 0.23644 2 
1.645 50.271 9.85115 0.16869 2 
3.290 50.271 10.13866 0.24806 2 
4.935 50.271 2.26534 0.05650 2 
6.579 50.271 0.00000 -0.00000 0 
8.224 50.271 0.00000 -0.00000 0 
9.869 50.271 0.00000 -0.00000 0 
11.514 50.271 0.00000 -0.00000 0 
13.159 50.271 0.00000 -0.00000 0 
14.804 50.271 0.00000 -0.00000 0 
16.449 50.271 0.00000 -0.00000 0 
18.093 50.271 0.00000 -0.00000 0 
19.738 50.271 0.00000 -0.00000 0 
21.383 50.271 0.00000 -0.00000 0 
23.028 50.271 0.00000 -0.00000 0 
24.673 50.271 -0.44644 0.12389 2 
26.318 50.271 -0.89288 0.24778 2 
27.963 50.271 5.95717 0.12783 2 
29.607 50.271 10.81276 0.43711 2 
31.252 50.271 10.41131 0.15730 2 
32.897 50.271 10.36548 0.17941 2 
34.542 50.271 10.15484 0.03544 2 
36.187 50.271 10.13336 0.12839 2 
37.832 50.271 9.93138 0.20421 2 
39.477 50.271 10.16024 0.21510 2 
41.121 50.271 10.34004 0.07689 2 
42.766 50.271 10.38876 0.29357 2 
44.411 50.271 10.11588 0.25182 2 
46.056 50.271 10.01567 0.19875 2 
47.701 50.271 10.22915 0.26236 2 
49.346 50.271 10.37197 0.17099 2 
50.991 50.271 10.08716 0.36329 2 
52.636 50.271 10.39699 0.08570 2 
54.280 50.271 10.43632 0.22908 2 
55.925 50.271 10.07290 0.20104 2 
57.570 50.271 10.22613 0.28922 2 
59.215 50.271 10.33765 0.17111 2 
60.860 50.271 10.11235 0.05049 2 
62.505 50.271 10.18077 0.15284 2 
64.150 50.271 10.39403 0.01382 2 
65.794 50.271 10.19610 -0.07580 2 
67.439 50.271 9.85567 0.02705 2 
69.084 50.271 10.52983 0.04885 2 
70.729 50.271 10.38689 0.03803 2 
72.374 50.271 10.45006 -0.06022 2 
74.019 50.271 10.19009 0.04570 2 
75.664 50.271 10.22635 0.21340 2 
77.308 50.271 10.56953 -0.01033 2 
78.953 50.271 10.45466 -0.14685 2 
80.598 50.271 10.25276 0.13140 2 
82.243 50.271 10.22384 -0.10853 2 
83.888 50.271 10.09657 -0.15397 2 
85.533 50.271 10.11445 -0.10627 2 
87.178 50.271 10.16654 -0.21452 2 
88.822 50.271 10.10794 0.01749 2 
90.467 50.271 10.38100 -0.02974 2 
92.112 50.271 9.96837 -0.26586 2 
93.757 50.271 9.95799 -0.01844 2 
95.402 50.271 9.76013 0.00282 2 
97.047 50.271 10.08279 -0.06370 2 
98.692 50.271 10.09097 -0.09588 2 
100.336 50.271 9.17987 0.05097 2 
101.981 50.271 5.28806 -0.20245 2 
103.626 50.271 0.00000 -0.00000 0 
105.271 50.271 0.00000 -0.00000 0 
106.916 50.271 0.00000 -0.00000 0 
108.561 50.271 0.00000 -0.00000 0 
110.206 50.271 0.00000 -0.00000 0 
111.850 50.271 0.20087 -0.12882 2 
113.495 50.271 0.23808 0.04496 2 
115.140 50.271 9.96111 -0.28526 2 
116.785 50.271 9.89157 -0.20973 2 
118.430 50.271 9.94166 -0.01518 2 
120.075 50.271 9.64924 -0.22384 2 
121.720 50.271 9.78233 -0.14923 2 
123.364 50.271 9.73761 -0.36466 2 
125.009 50.271 9.86000 -0.11072 2 
126.654 50.271 9.82166 -0.17085 2 
128.299 50.271 9.82012 0.07280 2 
129.944 50.271 10.11536 -0.18234 2 
131.589 50.271 9.61070 -0.34210 2 
133.234 50.271 9.84154 -0.25804 2 
134.879 50.271 9.94497 -0.13097 2 
136.523 50.271 9.69481 -0.27899 2 
138.168 50.271 9.69661 -0.18871 2 
139.813 50.271 9.83248 -0.00118 2 
141.458 50.271 9.77062 -0.15440 2 
143.103 50.271 10.07921 0.07048 2 
144.748 50.271 9.47435 0.05894 2 
146.393 50.271 9.46515 -0.07323 2 
148.037 50.271 10.00060 -0.27143 2 
149.682 50.271 9.56310 -0.10883 2 
151.327 50.271 9.21381 -0.55445 2 
152.972 50.271 0.00000 -0.00000 0 
-13.159 48.626 0.00000 -0.00000 0 
-11.514 48.626 9.95280 0.36478 2 
-9.869 48.626 9.77936 0.44626 2 
-8.224 48.626 9.88767 0.34247 2 
-6.579 48.626 9.82171 0.18824 2 
-4.935 48.626 9.78214 0.43544 2 
-3.290 48.626 9.94946 0.32005 2 
-1.645 48.626 10.04073 0.28199 2 
0.000 48.626 9.84480 0.49658 2 
1.645 48.626 9.96465 0.57478 2 
3.290 48.626 10.19319 0.36281 2 
4.935 48.626 4.53069 0.11301 2 
6.579 48.626 0.00000 -0.00000 0 
8.224 48.626 0.00000 -0.00000 0 
9.869 48.626 0.00000 -0.00000 0 
11.514 48.626 0.00000 -0.00000 0 
13.159 48.626 0.00000 -0.00000 0 
14.804 48.626 0.00000 -0.00000 0 
16.449 48.626 0.00000 -0.00000 0 
18.093 48.626 0.00000 -0.00000 0 
19.738 48.626 0.00000 -0.00000 0 
21.383 48.626 0.00000 -0.00000 0 
23.028 48.626 0.00000 -0.00000 0 
24.673 48.626 1.48777 -0.04961 2 
26.318 48.626 2.97555 -0.09923 2 
27.963 48.626 11.05311 0.14487 2 
29.607 48.626 10.21104 0.20134 2 
31.252 48.626 10.09969 0.05667 2 
32.897 48.626 10.39099 0.22688 2 
34.542 48.626 10.05455 0.25254 2 
36.187 48.626 10.20276 0.17604 2 
37.832 48.626 10.24255 0.22441 2 
39.477 48.626 10.22921 0.33702 2 
41.121 48.626 10.10773 0.23631 2 
42.766 48.626 9.99865 0.01805 2 
44.411 48.626 10.19115 0.08995 2 
46.056 48.626 10.26739 0.23142 2 
47.701 48.626 10.12128 0.09925 2 
49.346 48.626 9.94606 0.22938 2 
50.991 48.626 10.33093 0.13651 2 
52.636 48.626 10.35532 0.08271 2 
54.280 48.626 10.12254 0.04146 2 
55.925 48.626 10.12180 -0.07476 2 
57.570 48.626 10.36797 0.18483 2 
59.215 48.626 10.48163 0.06623 2 
60.860 48.626 10.33085 0.13456 2 
62.505 48.626 10.25151 0.18821 2 
64.150 48.626 10.31780 -0.00018 2 
65.794 48.626 10.37956 -0.01649 2 
67.439 48.626 10.44132 -0.03280 2 
69.084 48.626 10.70901 0.10159 2 
70.729 48.626 10.01218 0.22872 2 
72.374 48.626 10.54536 -0.13912 2 
74.019 48.626 10.32332 -0.11568 2 
75.664 48.626 10.22897 0.07648 2 
77.308 48.626 10.60897 -0.13710 2 
78.953 48.626 10.43273 -0.14377 2 
80.598 48.626 10.37334 -0.07765 2 
82.243 48.626 10.16587 0.03654 2 
83.888 48.626 10.25290 0.03374 2 
85.533 48.626 10.19800 0.09977 2 
87.178 48.626 10.08984 -0.34304 2 
88.822 48.626 10.08447 -0.42578 2 
90.467 48.626 10.42018 -0.13488 2 
92.112 48.626 9.97831 -0.14254 2 
93.757 48.626 10.31861 -0.10316 2 
95.402 48.626 10.01270 0.13041 2 
97.047 48.626 9.91261 0.03842 2 
98.692 48.626 10.09337 0.25852 2 
100.336 48.626 10.09503 -0.01582 2 
101.981 48.626 10.75843 -0.30257 2 
103.626 48.626 2.69909 -0.08794 2 
105.271 48.626 0.00000 -0.00000 0 
106.916 48.626 0.00000 -0.00000 0 
108.561 48.626 0.00000 -0.00000 0 
110.206 48.626 0.00000 -0.00000 0 
111.850 48.626 0.11904 0.02248 2 
113.495 48.626 1.24758 -0.00331 2 
115.140 48.626 9.58475 -0.29525 2 
116.785 48.626 10.01871 0.00338 2 
118.430 48.626 10.08268 -0.30497 2 
120.075 48.626 9.92860 -0.29122 2 
121.720 48.626 9.80280 -0.23120 2 
123.364 48.626 9.90082 -0.09415 2 
125.009 48.626 9.86571 0.17858 2 
126.654 48.626 9.72880 -0.04307 2 
128.299 48.626 9.94273 0.05845 2 
129.944 48.626 10.05897 -0.18425 2 
131.589 48.626 9.77198 0.08419 2 
133.234 48.626 9.98818 0.02134 2 
134.879 48.626 9.73789 0.12801 2 
136.523 48.626 9.76100 0.09095 2 
138.168 48.626 9.64355 -0.15856 2 
139.813 48.626 9.91806 -0.29946 2 
141.458 48.626 9.91146 -0.60640 2 
143.103 48.626 9.94443 -0.24150 2 
144.748 48.626 9.67764 -0.00022 2 
146.393 48.626 9.83900 0.14095 2 
148.037 48.626 9.80026 -0.19920 2 
149.682 48.626 9.37700 0.00485 2 
151.327 48.626 9.30426 -0.47017 2 
152.972 48.626 0.00000 -0.00000 0 
-13.159 46.981 0.00000 -0.00000 0 
-11.514 46.981 10.11451 0.39698 2 
-9.869 46.981 9.71233 0.38793 2 
-8.224 46.981 9.84127 0.18866 2 
-6.579 46.981 9.93978 0.24167 2 
-4.935 46.981 9.97525 0.34264 2 
-3.290 46.981 10.03946 0.31659 2 
-1.645 46.981 9.90942 0.41178 2 
0.000 46.981 9.75621 0.51694 2 
1.645 46.981 9.95934 0.41700 2 
3.290 46.981 10.24772 0.47757 2 
4.935 46.981 7.28551 0.02948 2 
6.579 46.981 0.00000 -0.00000 0 
8.224 46.981 0.00000 -0.00000 0 
9.869 46.981 0.00000 -0.00000 0 
11.514 46.981 0.00000 -0.00000 0 
13.159 46.981 0.00000 -0.00000 0 
14.804 46.981 0.00000 -0.00000 0 
16.449 46.981 0.00000 -0.00000 0 
18.093 46.981 0.00000 -0.00000 0 
19.738 46.981 0.00000 -0.00000 0 
21.383 46.981 0.00000 -0.00000 0 
23.028 46.981 0.00000 -0.00000 0 
24.673 46.981 3.42381 -0.04255 2 
26.318 46.981 6.84761 -0.08511 2 
27.963 46.981 10.66406 0.37829 2 
29.607 46.981 10.32222 0.43740 2 
31.252 46.981 10.50498 0.43398 2 
32.897 46.981 10.41650 0.27435 2 
34.542 46.981 10.26312 0.24241 2 
36.187 46.981 10.25753 0.18185 2 
37.832 46.981 10.28296 0.38763 2 
39.477 46.981 10.04061 0.30529 2 
41.121 46.981 10.07198 0.21770 2 
42.766 46.981 10.11225 0.29880 2 
44.411 46.981 10.32859 0.23390 2 
46.056 46.981 10.32045 -0.01959 2 
47.701 46.981 10.24932 -0.07925 2 
49.346 46.981 10.03938 0.05967 2 
50.991 46.981 10.09219 0.08776 2 
52.636 46.981 9.95858 -0.02348 2 
54.280 46.981 10.08496 0.16554 2 
55.925 46.981 10.33864 -0.00036 2 
57.570 46.981 10.52870 0.04477 2 
59.215 46.981 10.39288 0.07306 2 
60.860 46.981 10.29347 0.21636 2 
62.505 46.981 10.48798 0.09617 2 
64.150 46.981 9.94290 -0.01881 2 
65.794 46.981 10.06188 -0.05955 2 
67.439 46.981 10.18087 -0.10029 2 
69.084 46.981 10.24498 -0.18492 2 
70.729 46.981 10.05719 -0.13721 2 
72.374 46.981 10.27347 -0.33810 2 
74.019 46.981 10.24162 -0.00482 2 
75.664 46.981 10.23159 -0.06045 2 
77.308 46.981 10.65095 -0.14927 2 
78.953 46.981 10.07964 -0.14944 2 
80.598 46.981 10.33941 -0.10414 2 
82.243 46.981 10.25276 -0.18451 2 
83.888 46.981 10.19248 -0.03822 2 
85.533 46.981 10.36783 0.07617 2 
87.178 46.981 10.19364 -0.29467 2 
88.822 46.981 10.02442 -0.23256 2 
90.467 46.981 10.13880 0.08888 2 
92.112 46.981 10.08203 -0.25385 2 
93.757 46.981 10.14601 -0.37865 2 
95.402 46.981 10.07681 0.11156 2 
97.047 46.981 10.14682 -0.17387 2 
98.692 46.981 10.19539 -0.44779 2 
100.336 46.981 9.74977 -0.37877 2 
101.981 46.981 10.79637 -0.35175 2 
103.626 46.981 5.39818 -0.17587 2 
105.271 46.981 0.00000 -0.00000 0 
106.916 46.981 0.00000 -0.00000 0 
108.561 46.981 0.00000 -0.00000 0 
110.206 46.981 0.00000 -0.00000 0 
111.850 46.981 0.87617 -0.01372 2 
113.495 46.981 2.25708 -0.05157 2 
115.140 46.981 10.09716 -0.11541 2 
116.785 46.981 9.93124 -0.27738 2 
118.430 46.981 9.80278 0.06404 2 
120.075 46.981 9.61718 -0.16767 2 
121.720 46.981 9.80490 -0.13420 2 
123.364 46.981 9.89029 0.04812 2 
125.009 46.981 9.75619 -0.35039 2 
126.654 46.981 9.70295 -0.48218 2 
128.299 46.981 9.81356 -0.25384 2 
129.944 46.981 9.55312 -0.27831 2 
131.589 46.981 9.72435 -0.15373 2 
133.234 46.981 9.85493 -0.24050 2 
134.879 46.981 9.74346 -0.29477 2 
136.523 46.981 9.71962 -0.37978 2 
138.168 46.981 9.72329 -0.21601 2 
139.813 46.981 9.70280 -0.34976 2 
141.458 46.981 9.59526 -0.46543 2 
143.103 46.981 9.87610 -0.17899 2 
144.748 46.981 9.88092 -0.05938 2 
146.393 46.981 9.47124 -0.20572 2 
148.037 46.981 9.72032 -0.23508 2 
149.682 46.981 9.96730 0.06713 2 
151.327 46.981 10.17963 -0.28015 2 
152.972 46.981 0.00000 -0.00000 0 
-13.159 45.336 0.00000 -0.00000 0 
-11.514 45.336 10.04483 0.26472 2 
-9.869 45.336 9.77179 0.45548 2 
-8.224 45.336 9.66891 0.13338 2 
-6.579 45.336 9.94856 0.40207 2 
-4.935 45.336 9.80026 0.44153 2 
-3.290 45.336 9.81684 0.37023 2 
-1.645 45.336 9.67548 0.15770 2 
0.000 45.336 9.67768 0.30030 2 
1.645 45.336 10.02536 0.52613 2 
3.290 45.336 10.19604 0.41875 2 
4.935 45.336 10.04034 -0.05405 2 
6.579 45.336 0.00000 -0.00000 0 
8.224 45.336 0.00000 -0.00000 0 
9.869 45.336 0.00000 -0.00000 0 
11.514 45.336 0.00000 -0.00000 0 
13.159 45.336 0.00000 -0.00000 0 
14.804 45.336 0.00000 -0.00000 0 
16.449 45.336 0.00000 -0.00000 0 
18.093 45.336 0.00000 -0.00000 0 
19.738 45.336 0.00000 -0.00000 0 
21.383 45.336 0.00000 -0.00000 0 
23.028 45.336 0.00000 -0.00000 0 
24.673 45.336 5.21747 0.18752 2 
26.318 45.336 10.43494 0.37503 2 
27.963 45.336 10.27500 0.61171 2 
29.607 45.336 10.37983 0.31080 2 
31.252 45.336 10.25869 0.48736 2 
32.897 45.336 10.14964 0.47198 2 
34.542 45.336 10.16799 0.28661 2 
36.187 45.336 10.17844 0.17340 2 
37.832 45.336 10.12741 0.35521 2 
39.477 45.336 10.13597 0.40902 2 
41.121 45.336 10.26315 0.12221 2 
42.766 45.336 10.49633 0.38249 2 
44.411 45.336 10.43818 0.14450 2 
46.056 45.336 10.51700 0.19684 2 
47.701 45.336 10.50552 0.20181 2 
49.346 45.336 10.48631 0.11277 2 
50.991 45.336 10.39268 0.07804 2 
52.636 45.336 10.34441 0.07744 2 
54.280 45.336 10.26363 0.22681 2 
55.925 45.336 10.18495 0.03131 2 
57.570 45.336 10.41600 -0.13895 2 
59.215 45.336 10.21466 0.07072 2 
60.860 45.336 10.25731 0.34889 2 
62.505 45.336 10.42030 0.01319 2 
64.150 45.336 10.00702 0.04378 2 
65.794 45.336 9.99240 -0.07617 2 
67.439 45.336 10.07298 0.03492 2 
69.084 45.336 10.00843 0.03945 2 
70.729 45.336 10.25946 0.00352 2 
72.374 45.336 10.48599 -0.12890 2 
74.019 45.336 10.44836 -0.20708 2 
75.664 45.336 10.32606 -0.33872 2 
77.308 45.336 10.34733 -0.11888 2 
78.953 45.336 9.85148 -0.17830 2 
80.598 45.336 9.99903 -0.09076 2 
82.243 45.336 10.04269 -0.46019 2 
83.888 45.336 9.94897 -0.31166 2 
85.533 45.336 10.11644 -0.29730 2 
87.178 45.336 10.01442 -0.25818 2 
88.822 45.336 9.97003 -0.04129 2 
90.467 45.336 10.08796 -0.03744 2 
92.112 45.336 10.15442 -0.19674 2 
93.757 45.336 10.11605 -0.40103 2 
95.402 45.336 10.14116 -0.51177 2 
97.047 45.336 10.05765 -0.29786 2 
98.692 45.336 10.00712 -0.18850 2 
100.336 45.336 10.31166 -0.29300 2 
101.981 45.336 10.88899 -0.42907 2 
103.626 45.336 5.44450 -0.21454 2 
105.271 45.336 0.00000 -0.00000 0 
106.916 45.336 0.00000 -0.00000 0 
108.561 45.336 0.00000 -0.00000 0 
110.206 45.336 0.00000 -0.00000 0 
111.850 45.336 1.63329 -0.04992 2 
113.495 45.336 3.26658 -0.09983 2 
115.140 45.336 10.06261 -0.45497 2 
116.785 45.336 9.69635 -0.20908 2 
118.430 45.336 9.47723 -0.16766 2 
120.075 45.336 9.80381 -0.29986 2 
121.720 45.336 10.11943 -0.04222 2 
123.364 45.336 9.91577 -0.22097 2 
125.009 45.336 9.96401 -0.52892 2 
126.654 45.336 9.91093 -0.43157 2 
128.299 45.336 9.78713 -0.01146 2 
129.944 45.336 9.67194 -0.10894 2 
131.589 45.336 9.94931 -0.14171 2 
133.234 45.336 10.03253 -0.14530 2 
134.879 45.336 9.71698 -0.47636 2 
136.523 45.336 9.80540 -0.28988 2 
138.168 45.336 9.72761 -0.08472 2 
139.813 45.336 9.48238 -0.31581 2 
141.458 45.336 9.47642 -0.44240 2 
143.103 45.336 9.43123 -0.27048 2 
144.748 45.336 9.63875 0.14385 2 
146.393 45.336 9.70659 -0.03263 2 
148.037 45.336 9.88751 -0.24508 2 
149.682 45.336 9.82282 -0.04369 2 
151.327 45.336 9.77426 0.23238 2 
152.972 45.336 0.00000 -0.00000 0 
-13.159 43.692 0.00000 -0.00000 0 
-11.514 43.692 10.04386 0.00788 2 
-9.869 43.692 9.78283 0.21395 2 
-8.224 43.692 9.62827 0.27350 2 
-6.579 43.692 9.82000 0.43299 2 
-4.935 43.692 9.73104 0.29399 2 
-3.290 43.692 9.92707 0.47042 2 
-1.645 43.692 9.68267 0.29924 2 
0.000 43.692 9.63176 0.45858 2 
1.645 43.692 9.89785 0.42748 2 
3.290 43.692 10.00109 0.30468 2 
4.935 43.692 9.79500 0.30943 2 
6.579 43.692 0.00000 -0.00000 0 
8.224 43.692 0.00000 -0.00000 0 
9.869 43.692 0.00000 -0.00000 0 
11.514 43.692 0.00000 -0.00000 0 
13.159 43.692 0.00000 -0.00000 0 
14.804 43.692 0.00000 -0.00000 0 
16.449 43.692 0.00000 -0.00000 0 
18.093 43.692 0.00000 -0.00000 0 
19.738 43.692 0.00000 -0.00000 0 
21.383 43.692 0.00000 -0.00000 0 
23.028 43.692 0.00000 -0.00000 0 
24.673 43.692 -0.77207 -0.04210 2 
26.318 43.692 10.38384 0.49506 2 
27.963 43.692 10.31946 0.35410 2 
29.607 43.692 10.47271 0.31596 2 
31.252 43.692 10.05484 0.21000 2 
32.897 43.692 10.11364 0.45032 2 
34.542 43.692 10.38762 0.25764 2 
36.187 43.692 10.31985 0.21580 2 
37.832 43.692 10.17599 0.34425 2 
39.477 43.692 10.23964 0.27415 2 
41.121 43.692 10.32549 0.05322 2 
42.766 43.692 10.40846 0.27412 2 
44.411 43.692 10.26376 0.31760 2 
46.056 43.692 10.53915 0.41638 2 
47.701 43.692 10.41322 0.31904 2 
49.346 43.692 10.33681 0.29792 2 
50.991 43.692 10.31417 0.22325 2 
52.636 43.692 10.29421 0.17297 2 
54.280 43.692 10.26606 0.07043 2 
55.925 43.692 10.40871 -0.02674 2 
57.570 43.692 10.42318 -0.29387 2 
59.215 43.692 10.29602 -0.14941 2 
60.860 43.692 10.41995 0.06878 2 
62.505 43.692 10.29694 -0.02086 2 
64.150 43.692 10.24883 0.16102 2 
65.794 43.692 10.22421 -0.08584 2 
67.439 43.692 10.11859 -0.03571 2 
69.084 43.692 10.14762 0.15421 2 
70.729 43.692 10.32722 -0.02581 2 
72.374 43.692 10.51362 -0.12370 2 
74.019 43.692 10.35660 -0.27656 2 
75.664 43.692 10.14313 -0.51447 2 
77.308 43.692 10.01640 -0.20627 2 
78.953 43.692 10.26052 -0.24896 2 
80.598 43.692 10.16798 0.03208 2 
82.243 43.692 9.97775 -0.08758 2 
83.888 43.692 9.72651 -0.07666 2 
85.533 43.692 9.93595 -0.25416 2 
87.178 43.692 10.01658 -0.14641 2 
88.822 43.692 10.18576 -0.42841 2 
90.467 43.692 10.31119 -0.41548 2 
92.112 43.692 10.29978 -0.05018 2 
93.757 43.692 9.97632 -0.31323 2 
95.402 43.692 10.16249 -0.34599 2 
97.047 43.692 9.85839 -0.01378 2 
98.692 43.692 9.94732 0.03199 2 
100.336 43.692 10.24662 -0.28639 2 
101.981 43.692 10.86713 -0.43727 2 
103.626 43.692 5.31387 -0.03540 2 
105.271 43.692 0.00000 -0.00000 0 
106.916 43.692 0.00000 -0.00000 0 
108.561 43.692 0.00000 -0.00000 0 
110.206 43.692 0.00000 -0.00000 0 
111.850 43.692 1.84170 -0.22187 2 
113.495 43.692 4.41401 -0.18012 2 
115.140 43.692 10.33777 -0.43739 2 
116.785 43.692 9.79978 -0.25889 2 
118.430 43.692 9.63001 -0.39186 2 
120.075 43.692 10.10519 -0.29716 2 
121.720 43.692 9.52653 -0.37122 2 
123.364 43.692 9.54342 -0.39797 2 
125.009 43.692 9.77803 -0.18812 2 
126.654 43.692 9.94231 -0.31286 2 
128.299 43.692 10.01539 -0.19417 2 
129.944 43.692 9.79075 0.06042 2 
131.589 43.692 9.84874 -0.03771 2 
133.234 43.692 9.88130 -0.22638 2 
134.879 43.692 9.89583 0.00756 2 
136.523 43.692 9.88588 -0.08554 2 
138.168 43.692 9.87703 -0.00290 2 
139.813 43.692 9.72988 -0.11822 2 
141.458 43.692 9.77155 -0.53935 2 
143.103 43.692 9.35076 -0.12792 2 
144.748 43.692 9.80401 0.06609 2 
146.393 43.692 9.94195 0.14046 2 
148.037 43.692 9.74924 -0.01538 2 
149.682 43.692 9.67833 -0.15452 2 
151.327 43.692 9.42494 -0.33866 2 
152.972 43.692 0.00000 -0.00000 0 
-13.159 42.047 0.00000 -0.00000 0 
-11.514 42.047 10.00235 0.22677 2 
-9.869 42.047 9.91705 0.28368 2 
-8.224 42.047 9.79575 0.44326 2 
-6.579 42.047 9.55579 0.21047 2 
-4.935 42.047 9.69506 0.28450 2 
-3.290 42.047 9.77632 0.41512 2 
-1.645 42.047 9.96211 0.52652 2 
0.000 42.047 9.93454 0.56162 2 
1.645 42.047 9.94561 0.37516 2 
3.290 42.047 9.92295 0.40277 2 
4.935 42.047 10.14639 0.64350 2 
6.579 42.047 0.00000 -0.00000 0 
8.224 42.047 0.00000 -0.00000 0 
9.869 42.047 0.00000 -0.00000 0 
11.514 42.047 0.00000 -0.00000 0 
13.159 42.047 0.00000 -0.00000 0 
14.804 42.047 0.00000 -0.00000 0 
16.449 42.047 0.00000 -0.00000 0 
18.093 42.047 0.00000 -0.00000 0 
19.738 42.047 0.00000 -0.00000 0 
21.383 42.047 0.00000 -0.00000 0 
23.028 42.047 0.00000 -0.00000 0 
24.673 42.047 5.04296 0.36022 2 
26.318 42.047 10.08592 0.72045 2 
27.963 42.047 10.28640 0.33778 2 
29.607 42.047 10.45146 0.18449 2 
31.252 42.047 10.05483 0.34702 2 
32.897 42.047 10.09684 0.39249 2 
34.542 42.047 10.44448 0.47486 2 
36.187 42.047 10.28690 0.41961 2 
37.832 42.047 10.26384 0.48022 2 
39.477 42.047 10.18692 0.17792 2 
41.121 42.047 10.13333 0.17280 2 
42.766 42.047 10.00198 0.19832 2 
44.411 42.047 10.27307 0.26505 2 
46.056 42.047 10.56853 0.23910 2 
47.701 42.047 10.36259 0.17779 2 
49.346 42.047 10.38774 0.35442 2 
50.991 42.047 10.16358 0.11431 2 
52.636 42.047 10.18506 0.13420 2 
54.280 42.047 10.26553 0.14449 2 
55.925 42.047 10.49915 -0.03669 2 
57.570 42.047 10.56005 -0.15438 2 
59.215 42.047 10.31046 -0.06500 2 
60.860 42.047 10.42981 0.03607 2 
62.505 42.047 10.48000 0.06810 2 
64.150 42.047 10.43686 -0.07256 2 
65.794 42.047 10.31602 -0.27399 2 
67.439 42.047 10.47953 -0.18523 2 
69.084 42.047 10.58829 -0.10179 2 
70.729 42.047 10.15311 -0.37081 2 
72.374 42.047 10.22499 -0.11608 2 
74.019 42.047 10.11334 -0.10038 2 
75.664 42.047 10.16881 -0.54841 2 
77.308 42.047 10.24924 -0.43255 2 
78.953 42.047 10.29489 -0.23834 2 
80.598 42.047 10.07739 -0.03543 2 
82.243 42.047 9.83200 -0.42824 2 
83.888 42.047 9.93675 -0.28566 2 
85.533 42.047 10.05129 -0.10786 2 
87.178 42.047 10.24172 -0.34364 2 
88.822 42.047 10.15056 -0.35446 2 
90.467 42.047 10.22054 -0.42553 2 
92.112 42.047 9.99988 -0.30534 2 
93.757 42.047 9.83659 -0.22542 2 
95.402 42.047 10.04984 -0.38102 2 
97.047 42.047 10.08883 -0.37480 2 
98.692 42.047 10.02406 -0.24840 2 
100.336 42.047 9.81776 -0.25724 2 
101.981 42.047 10.46661 -0.59078 2 
103.626 42.047 5.29497 0.01098 2 
105.271 42.047 0.00000 -0.00000 0 
106.916 42.047 0.00000 -0.00000 0 
108.561 42.047 0.00000 -0.00000 0 
110.206 42.047 0.00000 -0.00000 0 
111.850 42.047 2.78072 -0.13021 2 
113.495 42.047 5.56144 -0.26042 2 
115.140 42.047 10.52871 -0.06939 2 
116.785 42.047 9.88576 0.00624 2 
118.430 42.047 9.69734 -0.25123 2 
120.075 42.047 9.73451 -0.22857 2 
121.720 42.047 9.67918 -0.27408 2 
123.364 42.047 9.77021 -0.14057 2 
125.009 42.047 9.81133 -0.21006 2 
126.654 42.047 9.52725 -0.23352 2 
128.299 42.047 9.96297 -0.20518 2 
129.944 42.047 9.66652 -0.19426 2 
131.589 42.047 9.77923 -0.25578 2 
133.234 42.047 9.52802 -0.26435 2 
134.879 42.047 9.79583 -0.37316 2 
136.523 42.047 9.81039 -0.27932 2 
138.168 42.047 9.99804 -0.32123 2 
139.813 42.047 9.87100 -0.35690 2 
141.458 42.047 9.84437 -0.26605 2 
143.103 42.047 9.77157 -0.24091 2 
144.748 42.047 10.06454 -0.19820 2 
146.393 42.047 9.67153 0.17866 2 
148.037 42.047 9.80033 0.07892 2 
149.682 42.047 9.70413 -0.15112 2 
151.327 42.047 10.05511 0.08451 2 
152.972 42.047 0.00000 -0.00000 0 
-13.159 40.402 0.00000 -0.00000 0 
-11.514 40.402 10.01854 0.22604 2 
-9.869 40.402 9.67838 0.34282 2 
-8.224 40.402 9.57133 0.23128 2 
-6.579 40.402 9.52301 0.33881 2 
-4.935 40.402 9.60800 0.35642 2 
-3.290 40.402 9.47517 0.43282 2 
-1.645 40.402 9.78113 0.33397 2 
0.000 40.402 10.04174 0.52190 2 
1.645 40.402 9.92814 0.37410 2 
3.290 40.402 9.80691 0.53826 2 
4.935 40.402 10.59854 0.41429 2 
6.579 40.402 0.00000 -0.00000 0 
8.224 40.402 0.00000 -0.00000 0 
9.869 40.402 0.00000 -0.00000 0 
11.514 40.402 0.00000 -0.00000 0 
13.159 40.402 0.00000 -0.00000 0 
14.804 40.402 0.00000 -0.00000 0 
16.449 40.402 0.00000 -0.00000 0 
18.093 40.402 0.00000 -0.00000 0 
19.738 40.402 0.00000 -0.00000 0 
21.383 40.402 0.00000 -0.00000 0 
23.028 40.402 0.00000 -0.00000 0 
24.673 40.402 5.33586 0.17678 2 
26.318 40.402 10.67171 0.35356 2 
27.963 40.402 10.26849 0.45014 2 
29.607 40.402 10.17405 0.42236 2 
31.252 40.402 10.19551 0.46697 2 
32.897 40.402 10.31095 0.29570 2 
34.542 40.402 10.26050 0.29894 2 
36.187 40.402 10.27396 0.43273 2 
37.832 40.402 10.48577 0.37344 2 
39.477 40.402 10.29715 0.23930 2 
41.121 40.402 10.33894 0.41146 2 
42.766 40.402 10.25434 0.08689 2 
44.411 40.402 10.37952 0.20852 2 
46.056 40.402 10.16682 0.06918 2 
47.701 40.402 10.21357 0.20588 2 
49.346 40.402 10.48746 0.16553 2 
50.991 40.402 10.44372 -0.04603 2 
52.636 40.402 10.36490 0.05339 2 
54.280 40.402 10.46087 0.09722 2 
55.925 40.402 10.40855 0.21222 2 
57.570 40.402 10.69692 -0.01489 2 
59.215 40.402 10.24096 0.27757 2 
60.860 40.402 10.35091 0.19229 2 
62.505 40.402 10.50065 0.23397 2 
64.150 40.402 10.64195 -0.15065 2 
65.794 40.402 10.47362 -0.18820 2 
67.439 40.402 10.28384 -0.01387 2 
69.084 40.402 10.16898 -0.29256 2 
70.729 40.402 10.05240 -0.21876 2 
72.374 40.402 10.17584 -0.27671 2 
74.019 40.402 10.10846 -0.26788 2 