TITLE = "B00011"
VARIABLES = "X [mm]", "Y [mm]", "Vx [m/s]", "Vy [m/s]", "Flag"
ZONE T="Frame 1", I=102, J=77, F=POINT
-13.159 53.561 0.00000 -0.00000 0 
-11.514 53.561 0.00000 -0.00000 0 
-9.869 53.561 10.21524 0.23727 2 
-8.224 53.561 9.80030 0.21275 2 
-6.579 53.561 9.92096 0.12329 2 
-4.935 53.561 9.87874 0.22121 2 
-3.290 53.561 9.93524 0.21697 2 
-1.645 53.561 10.07419 0.10438 2 
0.000 53.561 9.87625 0.18431 2 
1.645 53.561 9.74447 0.08623 2 
3.290 53.561 10.31847 0.03373 2 
4.935 53.561 0.00000 -0.00000 0 
6.579 53.561 0.00000 -0.00000 0 
8.224 53.561 0.00000 -0.00000 0 
9.869 53.561 0.00000 -0.00000 0 
11.514 53.561 0.00000 -0.00000 0 
13.159 53.561 0.00000 -0.00000 0 
14.804 53.561 0.00000 -0.00000 0 
16.449 53.561 0.00000 -0.00000 0 
18.093 53.561 0.00000 -0.00000 0 
19.738 53.561 0.00000 -0.00000 0 
21.383 53.561 0.00000 -0.00000 0 
23.028 53.561 0.00000 -0.00000 0 
24.673 53.561 3.49527 -0.00340 2 
26.318 53.561 6.99054 -0.00680 2 
27.963 53.561 10.48580 -0.01021 2 
29.607 53.561 10.30628 0.18163 2 
31.252 53.561 10.22728 0.20226 2 
32.897 53.561 10.36962 0.29193 2 
34.542 53.561 10.27508 0.38169 2 
36.187 53.561 10.22452 0.32527 2 
37.832 53.561 10.29798 0.04924 2 
39.477 53.561 10.23866 -0.20481 2 
41.121 53.561 10.31668 -0.00029 2 
42.766 53.561 10.11102 0.04147 2 
44.411 53.561 10.36980 0.01481 2 
46.056 53.561 10.37304 0.00571 2 
47.701 53.561 10.19179 -0.03780 2 
49.346 53.561 10.33072 -0.13581 2 
50.991 53.561 10.35197 -0.10515 2 
52.636 53.561 10.39779 0.00096 2 
54.280 53.561 10.40481 -0.20160 2 
55.925 53.561 10.31847 0.13266 2 
57.570 53.561 10.05060 0.27089 2 
59.215 53.561 10.14834 0.08814 2 
60.860 53.561 10.24609 -0.09461 2 
62.505 53.561 10.32979 -0.30058 2 
64.150 53.561 10.58800 -0.17250 2 
65.794 53.561 10.38307 -0.40051 2 
67.439 53.561 10.04772 -0.10941 2 
69.084 53.561 10.24413 -0.26168 2 
70.729 53.561 10.36657 -0.31655 2 
72.374 53.561 10.26457 -0.29455 2 
74.019 53.561 10.35173 0.13517 2 
75.664 53.561 10.14428 0.24339 2 
77.308 53.561 10.24007 0.07411 2 
78.953 53.561 10.28814 -0.12560 2 
80.598 53.561 10.17647 -0.23677 2 
82.243 53.561 10.17538 -0.25948 2 
83.888 53.561 10.17947 -0.25710 2 
85.533 53.561 10.14611 -0.24237 2 
87.178 53.561 9.93974 -0.25880 2 
88.822 53.561 10.01722 -0.46851 2 
90.467 53.561 10.19214 -0.33950 2 
92.112 53.561 10.12585 -0.12251 2 
93.757 53.561 10.17228 -0.29738 2 
95.402 53.561 10.09454 -0.30407 2 
97.047 53.561 10.05713 -0.28619 2 
98.692 53.561 10.18157 -0.16578 2 
100.336 53.561 6.78771 -0.11052 2 
101.981 53.561 3.39386 -0.05526 2 
103.626 53.561 0.00000 -0.00000 0 
105.271 53.561 0.00000 -0.00000 0 
106.916 53.561 0.00000 -0.00000 0 
108.561 53.561 0.00000 -0.00000 0 
110.206 53.561 0.00000 -0.00000 0 
111.850 53.561 -0.65407 -0.18907 2 
113.495 53.561 4.23620 -0.21112 2 
115.140 53.561 9.12647 -0.23317 2 
116.785 53.561 9.57241 -0.28791 2 
118.430 53.561 9.90315 -0.32163 2 
120.075 53.561 10.23389 -0.35536 2 
121.720 53.561 9.89377 -0.25602 2 
123.364 53.561 9.62908 -0.23559 2 
125.009 53.561 10.13079 -0.18270 2 
126.654 53.561 9.84809 -0.21322 2 
128.299 53.561 9.65720 -0.36887 2 
129.944 53.561 9.88053 -0.24929 2 
131.589 53.561 10.06538 0.11009 2 
133.234 53.561 10.13420 0.23073 2 
134.879 53.561 10.01155 0.16723 2 
136.523 53.561 9.78910 0.01313 2 
138.168 53.561 9.70006 -0.06309 2 
139.813 53.561 9.72990 -0.29751 2 
141.458 53.561 9.64234 -0.37143 2 
143.103 53.561 9.82483 -0.21812 2 
144.748 53.561 9.83975 -0.01903 2 
146.393 53.561 9.86349 0.09009 2 
148.037 53.561 10.15389 0.13685 2 
149.682 53.561 9.85337 0.04962 2 
151.327 53.561 10.22944 -0.03139 2 
152.972 53.561 0.00000 -0.00000 0 
-13.159 51.916 0.00000 -0.00000 0 
-11.514 51.916 0.00000 -0.00000 0 
-9.869 51.916 9.90986 0.42833 2 
-8.224 51.916 9.80658 0.62217 2 
-6.579 51.916 9.78809 0.24964 2 
-4.935 51.916 9.72894 0.35574 2 
-3.290 51.916 10.00091 0.49596 2 
-1.645 51.916 9.84836 0.47535 2 
0.000 51.916 9.83981 0.56037 2 
1.645 51.916 9.75693 0.35675 2 
3.290 51.916 10.21055 0.12620 2 
4.935 51.916 0.00000 -0.00000 0 
6.579 51.916 0.00000 -0.00000 0 
8.224 51.916 0.00000 -0.00000 0 
9.869 51.916 0.00000 -0.00000 0 
11.514 51.916 0.00000 -0.00000 0 
13.159 51.916 0.00000 -0.00000 0 
14.804 51.916 0.00000 -0.00000 0 
16.449 51.916 0.00000 -0.00000 0 
18.093 51.916 0.00000 -0.00000 0 
19.738 51.916 0.00000 -0.00000 0 
21.383 51.916 0.00000 -0.00000 0 
23.028 51.916 0.00000 -0.00000 0 
24.673 51.916 4.58662 0.06153 2 
26.318 51.916 8.46353 0.17287 2 
27.963 51.916 10.53939 0.26909 2 
29.607 51.916 10.22730 0.50318 2 
31.252 51.916 10.29974 0.16940 2 
32.897 51.916 10.45954 0.48956 2 
34.542 51.916 10.28876 0.65129 2 
36.187 51.916 10.33755 0.56755 2 
37.832 51.916 10.24609 0.36863 2 
39.477 51.916 10.29110 0.29976 2 
41.121 51.916 10.56258 0.20599 2 
42.766 51.916 10.14476 0.13345 2 
44.411 51.916 10.28549 0.28384 2 
46.056 51.916 10.47142 0.11588 2 
47.701 51.916 10.37757 0.15633 2 
49.346 51.916 10.38957 0.01054 2 
50.991 51.916 10.29521 0.12038 2 
52.636 51.916 10.08025 0.03563 2 
54.280 51.916 10.12135 -0.08758 2 
55.925 51.916 10.12743 0.12211 2 
57.570 51.916 10.13797 0.13507 2 
59.215 51.916 10.42039 0.17000 2 
60.860 51.916 9.97021 0.03343 2 
62.505 51.916 10.15740 0.05768 2 
64.150 51.916 10.51071 -0.19303 2 
65.794 51.916 10.44645 -0.19940 2 
67.439 51.916 9.98912 -0.12217 2 
69.084 51.916 10.29150 -0.38317 2 
70.729 51.916 10.16395 0.04292 2 
72.374 51.916 10.05048 0.17047 2 
74.019 51.916 10.01474 -0.09348 2 
75.664 51.916 9.92430 -0.09330 2 
77.308 51.916 10.46939 -0.20894 2 
78.953 51.916 10.26281 0.05395 2 
80.598 51.916 10.26004 -0.18909 2 
82.243 51.916 10.22503 -0.12430 2 
83.888 51.916 10.14420 -0.15900 2 
85.533 51.916 10.32117 -0.38656 2 
87.178 51.916 10.25082 -0.34328 2 
88.822 51.916 10.19498 -0.22913 2 
90.467 51.916 10.03104 -0.32339 2 
92.112 51.916 10.08864 -0.14880 2 
93.757 51.916 10.16933 -0.37272 2 
95.402 51.916 10.17995 -0.64758 2 
97.047 51.916 9.84320 -0.37017 2 
98.692 51.916 10.47610 -0.01402 2 
100.336 51.916 10.47729 -0.11973 2 
101.981 51.916 10.10810 -0.18243 2 
103.626 51.916 0.00000 -0.00000 0 
105.271 51.916 0.00000 -0.00000 0 
106.916 51.916 0.00000 -0.00000 0 
108.561 51.916 0.00000 -0.00000 0 
110.206 51.916 0.00000 -0.00000 0 
111.850 51.916 5.06021 -0.70125 2 
113.495 51.916 10.38525 -0.60175 2 
115.140 51.916 10.28244 -0.47836 2 
116.785 51.916 10.17962 -0.35496 2 
118.430 51.916 10.09397 -0.10909 2 
120.075 51.916 10.08991 -0.34843 2 
121.720 51.916 10.32187 -0.34003 2 
123.364 51.916 9.94080 -0.11633 2 
125.009 51.916 9.82769 -0.43485 2 
126.654 51.916 9.85774 -0.30898 2 
128.299 51.916 9.84722 -0.04578 2 
129.944 51.916 9.97848 -0.09636 2 
131.589 51.916 9.75252 0.01654 2 
133.234 51.916 9.80368 -0.32487 2 
134.879 51.916 10.08133 0.06700 2 
136.523 51.916 10.14732 0.06314 2 
138.168 51.916 10.06828 -0.24840 2 
139.813 51.916 10.10537 -0.01220 2 
141.458 51.916 9.38796 -0.26593 2 
143.103 51.916 9.72608 -0.36138 2 
144.748 51.916 9.94970 0.07077 2 
146.393 51.916 9.89504 -0.10104 2 
148.037 51.916 9.62839 -0.01515 2 
149.682 51.916 9.86876 -0.07338 2 
151.327 51.916 9.89830 -0.01555 2 
152.972 51.916 0.00000 -0.00000 0 
-13.159 50.271 0.00000 -0.00000 0 
-11.514 50.271 9.85455 0.61696 2 
-9.869 50.271 10.06195 0.37940 2 
-8.224 50.271 10.10979 0.39511 2 
-6.579 50.271 9.81045 0.14985 2 
-4.935 50.271 9.66836 0.14015 2 
-3.290 50.271 9.93933 0.29591 2 
-1.645 50.271 9.90862 0.65402 2 
0.000 50.271 9.76854 0.41373 2 
1.645 50.271 9.93036 0.31836 2 
3.290 50.271 10.10264 0.21867 2 
4.935 50.271 0.24072 -0.04501 2 
6.579 50.271 0.00000 -0.00000 0 
8.224 50.271 0.00000 -0.00000 0 
9.869 50.271 0.00000 -0.00000 0 
11.514 50.271 0.00000 -0.00000 0 
13.159 50.271 0.00000 -0.00000 0 
14.804 50.271 0.00000 -0.00000 0 
16.449 50.271 0.00000 -0.00000 0 
18.093 50.271 0.00000 -0.00000 0 
19.738 50.271 0.00000 -0.00000 0 
21.383 50.271 0.00000 -0.00000 0 
23.028 50.271 0.00000 -0.00000 0 
24.673 50.271 5.67797 0.12646 2 
26.318 50.271 11.35594 0.25293 2 
27.963 50.271 10.44654 0.23081 2 
29.607 50.271 10.07489 0.27652 2 
31.252 50.271 10.25950 0.21848 2 
32.897 50.271 10.29343 0.29154 2 
34.542 50.271 10.13674 0.36081 2 
36.187 50.271 10.31863 0.40889 2 
37.832 50.271 10.07527 0.29581 2 
39.477 50.271 10.18016 0.44557 2 
41.121 50.271 10.38264 0.20575 2 
42.766 50.271 10.36279 -0.06570 2 
44.411 50.271 10.31481 0.00187 2 
46.056 50.271 10.27468 0.13709 2 
47.701 50.271 10.36330 0.21680 2 
49.346 50.271 10.53318 0.21375 2 
50.991 50.271 10.23344 0.11126 2 
52.636 50.271 9.94325 0.00448 2 
54.280 50.271 9.95754 -0.10420 2 
55.925 50.271 10.35410 0.16938 2 
57.570 50.271 10.05424 0.00699 2 
59.215 50.271 10.06339 -0.03239 2 
60.860 50.271 9.97275 -0.19225 2 
62.505 50.271 10.20931 -0.21433 2 
64.150 50.271 10.28249 -0.11831 2 
65.794 50.271 10.15399 -0.07245 2 
67.439 50.271 10.28983 -0.24160 2 
69.084 50.271 10.30967 -0.30642 2 
70.729 50.271 10.16749 0.13973 2 
72.374 50.271 10.30879 0.09204 2 
74.019 50.271 10.18429 -0.09086 2 
75.664 50.271 10.23552 -0.23179 2 
77.308 50.271 10.42037 -0.33372 2 
78.953 50.271 10.03988 -0.11958 2 
80.598 50.271 9.92782 -0.30917 2 
82.243 50.271 10.25177 -0.15762 2 
83.888 50.271 10.10893 -0.06090 2 
85.533 50.271 10.06207 -0.31020 2 
87.178 50.271 10.21933 -0.12771 2 
88.822 50.271 9.91704 -0.04772 2 
90.467 50.271 10.12220 -0.04387 2 
92.112 50.271 10.26278 0.03564 2 
93.757 50.271 10.33321 -0.19736 2 
95.402 50.271 10.16650 -0.29987 2 
97.047 50.271 9.88082 -0.08458 2 
98.692 50.271 10.19102 0.04531 2 
100.336 50.271 9.92864 -0.00296 2 
101.981 50.271 10.07697 -0.11990 2 
103.626 50.271 0.00000 -0.00000 0 
105.271 50.271 0.00000 -0.00000 0 
106.916 50.271 0.00000 -0.00000 0 
108.561 50.271 0.00000 -0.00000 0 
110.206 50.271 0.00000 -0.00000 0 
111.850 50.271 5.30427 -0.56628 2 
113.495 50.271 10.48292 -0.45100 2 
115.140 50.271 9.92108 -0.51832 2 
116.785 50.271 9.73491 -0.28257 2 
118.430 50.271 10.01084 -0.17062 2 
120.075 50.271 9.94593 -0.34151 2 
121.720 50.271 10.11774 -0.21146 2 
123.364 50.271 9.83684 -0.26720 2 
125.009 50.271 9.98794 -0.00094 2 
126.654 50.271 9.65678 -0.30606 2 
128.299 50.271 9.90580 0.16806 2 
129.944 50.271 10.02245 0.00700 2 
131.589 50.271 9.82827 -0.21438 2 
133.234 50.271 9.69110 -0.30503 2 
134.879 50.271 10.10982 -0.13681 2 
136.523 50.271 9.86625 -0.04715 2 
138.168 50.271 10.02592 -0.19074 2 
139.813 50.271 9.97366 -0.01150 2 
141.458 50.271 9.56337 -0.25644 2 
143.103 50.271 9.57175 -0.18462 2 
144.748 50.271 9.98636 0.04902 2 
146.393 50.271 9.86193 -0.18040 2 
148.037 50.271 10.02355 -0.22949 2 
149.682 50.271 10.18011 -0.30793 2 
151.327 50.271 9.97622 -0.02439 2 
152.972 50.271 0.00000 -0.00000 0 
-13.159 48.626 0.00000 -0.00000 0 
-11.514 48.626 9.77815 0.67339 2 
-9.869 48.626 10.05587 0.22815 2 
-8.224 48.626 9.91934 0.00292 2 
-6.579 48.626 9.98153 0.21890 2 
-4.935 48.626 9.72185 0.26375 2 
-3.290 48.626 9.92509 0.20604 2 
-1.645 48.626 10.12869 0.60267 2 
0.000 48.626 9.74241 0.36632 2 
1.645 48.626 9.70640 0.49196 2 
3.290 48.626 10.22298 0.40262 2 
4.935 48.626 0.48144 -0.09002 2 
6.579 48.626 0.00000 -0.00000 0 
8.224 48.626 0.00000 -0.00000 0 
9.869 48.626 0.00000 -0.00000 0 
11.514 48.626 0.00000 -0.00000 0 
13.159 48.626 0.00000 -0.00000 0 
14.804 48.626 0.00000 -0.00000 0 
16.449 48.626 0.00000 -0.00000 0 
18.093 48.626 0.00000 -0.00000 0 
19.738 48.626 0.00000 -0.00000 0 
21.383 48.626 0.00000 -0.00000 0 
23.028 48.626 0.00000 -0.00000 0 
24.673 48.626 5.41908 0.16192 2 
26.318 48.626 10.83817 0.32383 2 
27.963 48.626 10.13964 0.23268 2 
29.607 48.626 10.15660 0.31936 2 
31.252 48.626 10.18476 0.27654 2 
32.897 48.626 10.33593 0.39005 2 
34.542 48.626 10.07400 0.27656 2 
36.187 48.626 10.03846 0.31550 2 
37.832 48.626 9.95944 0.22553 2 
39.477 48.626 10.04510 0.12677 2 
41.121 48.626 10.22779 0.24112 2 
42.766 48.626 10.12253 0.17809 2 
44.411 48.626 10.14206 0.16971 2 
46.056 48.626 10.15409 0.34488 2 
47.701 48.626 10.39957 0.34104 2 
49.346 48.626 10.54045 0.22420 2 
50.991 48.626 10.21043 -0.03466 2 
52.636 48.626 10.05674 0.25111 2 
54.280 48.626 10.21742 0.23253 2 
55.925 48.626 10.44697 0.18997 2 
57.570 48.626 10.56989 -0.01905 2 
59.215 48.626 10.24806 0.15659 2 
60.860 48.626 10.23040 -0.20147 2 
62.505 48.626 10.41247 -0.21201 2 
64.150 48.626 10.43840 -0.05428 2 
65.794 48.626 9.96312 -0.06274 2 
67.439 48.626 10.46842 0.09438 2 
69.084 48.626 10.49178 0.16986 2 
70.729 48.626 10.13165 0.00799 2 
72.374 48.626 10.33143 0.15653 2 
74.019 48.626 10.35205 0.20263 2 
75.664 48.626 10.35683 -0.19433 2 
77.308 48.626 10.29915 -0.23217 2 
78.953 48.626 10.22946 -0.09917 2 
80.598 48.626 10.06172 -0.19309 2 
82.243 48.626 10.13591 0.06355 2 
83.888 48.626 10.16263 -0.28504 2 
85.533 48.626 10.32033 -0.13229 2 
87.178 48.626 10.24086 0.07901 2 
88.822 48.626 9.82890 -0.15664 2 
90.467 48.626 10.44363 -0.02184 2 
92.112 48.626 10.51692 -0.15095 2 
93.757 48.626 10.24582 -0.37156 2 
95.402 48.626 9.95249 0.01829 2 
97.047 48.626 9.98764 0.13103 2 
98.692 48.626 10.28239 -0.51799 2 
100.336 48.626 10.21353 0.05727 2 
101.981 48.626 10.04584 -0.05736 2 
103.626 48.626 -0.59447 -0.06446 2 
105.271 48.626 0.00000 -0.00000 0 
106.916 48.626 0.00000 -0.00000 0 
108.561 48.626 0.00000 -0.00000 0 
110.206 48.626 0.00000 -0.00000 0 
111.850 48.626 5.53774 0.07103 2 
113.495 48.626 10.58058 -0.30024 2 
115.140 48.626 10.18902 -0.58358 2 
116.785 48.626 9.95886 -0.30957 2 
118.430 48.626 9.92771 -0.23215 2 
120.075 48.626 10.07408 -0.30215 2 
121.720 48.626 10.05814 -0.13103 2 
123.364 48.626 9.78157 -0.13461 2 
125.009 48.626 10.02102 -0.07285 2 
126.654 48.626 9.67829 -0.26571 2 
128.299 48.626 9.72038 0.04884 2 
129.944 48.626 9.85018 -0.12279 2 
131.589 48.626 9.89398 -0.17087 2 
133.234 48.626 9.64761 -0.05024 2 
134.879 48.626 10.26777 -0.16789 2 
136.523 48.626 9.74302 0.06330 2 
138.168 48.626 9.69344 0.07773 2 
139.813 48.626 9.65177 -0.10115 2 
141.458 48.626 9.94416 -0.34799 2 
143.103 48.626 9.39991 -0.19926 2 
144.748 48.626 9.54982 0.10710 2 
146.393 48.626 9.89380 0.25802 2 
148.037 48.626 10.18808 0.13749 2 
149.682 48.626 10.25018 -0.01527 2 
151.327 48.626 10.30694 0.03326 2 
152.972 48.626 0.00000 -0.00000 0 
-13.159 46.981 0.00000 -0.00000 0 
-11.514 46.981 9.97314 0.54176 2 
-9.869 46.981 9.86890 0.32916 2 
-8.224 46.981 9.80617 0.25368 2 
-6.579 46.981 9.92256 0.27612 2 
-4.935 46.981 9.80573 0.30006 2 
-3.290 46.981 10.01629 0.43147 2 
-1.645 46.981 9.97449 0.69983 2 
0.000 46.981 9.71113 0.36156 2 
1.645 46.981 9.79171 0.26557 2 
3.290 46.981 10.13553 0.34909 2 
4.935 46.981 5.28832 -0.12682 2 
6.579 46.981 0.00000 -0.00000 0 
8.224 46.981 0.00000 -0.00000 0 
9.869 46.981 0.00000 -0.00000 0 
11.514 46.981 0.00000 -0.00000 0 
13.159 46.981 0.00000 -0.00000 0 
14.804 46.981 0.00000 -0.00000 0 
16.449 46.981 0.00000 -0.00000 0 
18.093 46.981 0.00000 -0.00000 0 
19.738 46.981 0.00000 -0.00000 0 
21.383 46.981 0.00000 -0.00000 0 
23.028 46.981 0.00000 -0.00000 0 
24.673 46.981 5.16020 0.19737 2 
26.318 46.981 10.32040 0.39473 2 
27.963 46.981 10.34618 0.22258 2 
29.607 46.981 10.31947 0.22001 2 
31.252 46.981 10.07088 0.34099 2 
32.897 46.981 10.28795 0.55240 2 
34.542 46.981 10.27747 0.28780 2 
36.187 46.981 10.17777 0.14508 2 
37.832 46.981 10.25926 0.29492 2 
39.477 46.981 10.42702 0.19720 2 
41.121 46.981 10.25404 0.17439 2 
42.766 46.981 9.97299 0.14338 2 
44.411 46.981 10.26421 0.18635 2 
46.056 46.981 10.28891 0.24996 2 
47.701 46.981 10.42028 0.43400 2 
49.346 46.981 10.41962 0.31124 2 
50.991 46.981 10.45259 0.03161 2 
52.636 46.981 10.42626 0.41192 2 
54.280 46.981 10.35582 0.34943 2 
55.925 46.981 10.22841 0.13644 2 
57.570 46.981 10.66349 0.06998 2 
59.215 46.981 10.34930 -0.01841 2 
60.860 46.981 10.28234 -0.09685 2 
62.505 46.981 10.42943 -0.04027 2 
64.150 46.981 10.48796 0.05487 2 
65.794 46.981 10.04484 -0.17046 2 
67.439 46.981 10.07779 -0.03782 2 
69.084 46.981 10.13587 0.31443 2 
70.729 46.981 10.18019 0.15757 2 
72.374 46.981 10.20939 0.19047 2 
74.019 46.981 10.23778 0.10382 2 
75.664 46.981 10.28094 -0.10995 2 
77.308 46.981 10.34669 0.09200 2 
78.953 46.981 10.38154 -0.10993 2 
80.598 46.981 10.36214 -0.29517 2 
82.243 46.981 10.14288 -0.14658 2 
83.888 46.981 10.09077 -0.09361 2 
85.533 46.981 10.44080 -0.12025 2 
87.178 46.981 10.31509 -0.32180 2 
88.822 46.981 10.27423 -0.49035 2 
90.467 46.981 10.50608 -0.26509 2 
92.112 46.981 10.04129 -0.21898 2 
93.757 46.981 9.93293 -0.30039 2 
95.402 46.981 9.88902 -0.21214 2 
97.047 46.981 10.09490 -0.14644 2 
98.692 46.981 10.24369 -0.23132 2 
100.336 46.981 10.29896 -0.02019 2 
101.981 46.981 10.07785 -0.27800 2 
103.626 46.981 -1.18893 -0.12891 2 
105.271 46.981 0.00000 -0.00000 0 
106.916 46.981 0.00000 -0.00000 0 
108.561 46.981 0.00000 -0.00000 0 
110.206 46.981 0.00000 -0.00000 0 
111.850 46.981 5.24250 -0.23315 2 
113.495 46.981 10.48465 -0.28855 2 
115.140 46.981 10.29019 -0.23456 2 
116.785 46.981 10.09885 -0.25412 2 
118.430 46.981 10.21513 -0.44850 2 
120.075 46.981 10.07084 -0.18620 2 
121.720 46.981 9.88124 -0.00817 2 
123.364 46.981 9.72630 -0.00202 2 
125.009 46.981 10.05411 -0.14476 2 
126.654 46.981 9.93420 -0.41094 2 
128.299 46.981 9.99675 -0.26584 2 
129.944 46.981 9.85042 -0.15201 2 
131.589 46.981 9.98436 0.21217 2 
133.234 46.981 9.93908 -0.20239 2 
134.879 46.981 10.05770 -0.13057 2 
136.523 46.981 10.06328 0.04930 2 
138.168 46.981 10.01927 0.07158 2 
139.813 46.981 9.68167 -0.06021 2 
141.458 46.981 10.12815 0.02640 2 
143.103 46.981 9.95502 0.16425 2 
144.748 46.981 9.48623 -0.08715 2 
146.393 46.981 9.82781 -0.13803 2 
148.037 46.981 9.76761 -0.44954 2 
149.682 46.981 9.99841 -0.47865 2 
151.327 46.981 9.90244 0.14668 2 
152.972 46.981 0.00000 -0.00000 0 
-13.159 45.336 0.00000 -0.00000 0 
-11.514 45.336 10.16813 0.41013 2 
-9.869 45.336 9.93359 0.34071 2 
-8.224 45.336 9.81604 0.31664 2 
-6.579 45.336 9.80986 0.24912 2 
-4.935 45.336 9.74977 0.24486 2 
-3.290 45.336 9.90977 0.35038 2 
-1.645 45.336 10.01098 0.48152 2 
0.000 45.336 9.62312 0.40954 2 
1.645 45.336 9.86867 0.42951 2 
3.290 45.336 10.08710 0.14589 2 
4.935 45.336 10.46670 0.35110 2 
6.579 45.336 0.00000 -0.00000 0 
8.224 45.336 0.00000 -0.00000 0 
9.869 45.336 0.00000 -0.00000 0 
11.514 45.336 0.00000 -0.00000 0 
13.159 45.336 0.00000 -0.00000 0 
14.804 45.336 0.00000 -0.00000 0 
16.449 45.336 0.00000 -0.00000 0 
18.093 45.336 0.00000 -0.00000 0 
19.738 45.336 0.00000 -0.00000 0 
21.383 45.336 0.00000 -0.00000 0 
23.028 45.336 0.00000 -0.00000 0 
24.673 45.336 5.31021 0.35835 2 
26.318 45.336 10.43784 0.51174 2 
27.963 45.336 10.37937 0.45187 2 
29.607 45.336 10.48280 0.14980 2 
31.252 45.336 10.25570 0.50491 2 
32.897 45.336 10.17099 0.44001 2 
34.542 45.336 10.26750 0.13704 2 
36.187 45.336 10.28579 0.40665 2 
37.832 45.336 10.21543 0.27312 2 
39.477 45.336 10.31772 0.11741 2 
41.121 45.336 10.21911 0.19248 2 
42.766 45.336 10.13949 0.34910 2 
44.411 45.336 10.31113 0.24117 2 
46.056 45.336 10.37621 0.07267 2 
47.701 45.336 10.28206 0.38436 2 
49.346 45.336 10.31949 0.37488 2 
50.991 45.336 10.61974 0.07893 2 
52.636 45.336 10.44917 0.08328 2 
54.280 45.336 10.32081 0.04985 2 
55.925 45.336 10.39879 0.04759 2 
57.570 45.336 10.37031 0.28299 2 
59.215 45.336 10.48089 -0.03135 2 
60.860 45.336 10.19766 -0.10197 2 
62.505 45.336 10.19133 0.07342 2 
64.150 45.336 10.49266 0.07780 2 
65.794 45.336 10.27794 -0.33916 2 
67.439 45.336 10.21120 -0.13475 2 
69.084 45.336 10.12270 0.00329 2 
70.729 45.336 10.45356 0.30760 2 
72.374 45.336 10.57222 0.20645 2 
74.019 45.336 10.31855 -0.18161 2 
75.664 45.336 10.36953 -0.14800 2 
77.308 45.336 10.31980 0.18540 2 
78.953 45.336 10.41529 -0.36989 2 
80.598 45.336 10.21319 -0.14629 2 
82.243 45.336 10.14600 -0.27928 2 
83.888 45.336 10.02022 0.02843 2 
85.533 45.336 10.30359 -0.38887 2 
87.178 45.336 10.24508 -0.71735 2 
88.822 45.336 10.11317 -0.52798 2 
90.467 45.336 10.13761 -0.22317 2 
92.112 45.336 9.96399 0.07394 2 
93.757 45.336 9.75887 -0.26425 2 
95.402 45.336 9.82556 -0.44257 2 
97.047 45.336 10.19538 -0.05552 2 
98.692 45.336 10.20499 0.05535 2 
100.336 45.336 10.14499 -0.37110 2 
101.981 45.336 10.22168 -0.31308 2 
103.626 45.336 5.11084 -0.15654 2 
105.271 45.336 0.00000 -0.00000 0 
106.916 45.336 0.00000 -0.00000 0 
108.561 45.336 0.00000 -0.00000 0 
110.206 45.336 0.00000 -0.00000 0 
111.850 45.336 5.42634 -0.31835 2 
113.495 45.336 10.08500 -0.58787 2 
115.140 45.336 9.90913 -0.30223 2 
116.785 45.336 9.93208 -0.38038 2 
118.430 45.336 10.27993 -0.47419 2 
120.075 45.336 9.98940 -0.11401 2 
121.720 45.336 9.96759 -0.18824 2 
123.364 45.336 9.92243 -0.28734 2 
125.009 45.336 10.06025 -0.51334 2 
126.654 45.336 10.24394 -0.31488 2 
128.299 45.336 10.13607 -0.31115 2 
129.944 45.336 9.79561 -0.04778 2 
131.589 45.336 9.72801 -0.03119 2 
133.234 45.336 9.79669 -0.32337 2 
134.879 45.336 9.70727 -0.22748 2 
136.523 45.336 9.97775 -0.23706 2 
138.168 45.336 9.65523 -0.37493 2 
139.813 45.336 9.53895 -0.18624 2 
141.458 45.336 9.62301 -0.34155 2 
143.103 45.336 9.72283 -0.45412 2 
144.748 45.336 10.04686 -0.22979 2 
146.393 45.336 9.66511 -0.48919 2 
148.037 45.336 9.72076 -0.25686 2 
149.682 45.336 9.52856 -0.33111 2 
151.327 45.336 9.33098 -0.07556 2 
152.972 45.336 0.00000 -0.00000 0 
-13.159 43.692 0.00000 -0.00000 0 
-11.514 43.692 9.87299 0.24913 2 
-9.869 43.692 9.92514 0.38453 2 
-8.224 43.692 9.94400 0.27713 2 
-6.579 43.692 9.89346 0.25890 2 
-4.935 43.692 9.90159 0.55191 2 
-3.290 43.692 9.85633 0.42155 2 
-1.645 43.692 10.17567 0.45984 2 
0.000 43.692 9.72659 0.38964 2 
1.645 43.692 9.90374 0.18750 2 
3.290 43.692 9.72498 0.09393 2 
4.935 43.692 9.87044 0.22372 2 
6.579 43.692 0.00000 -0.00000 0 
8.224 43.692 0.00000 -0.00000 0 
9.869 43.692 0.00000 -0.00000 0 
11.514 43.692 0.00000 -0.00000 0 
13.159 43.692 0.00000 -0.00000 0 
14.804 43.692 0.00000 -0.00000 0 
16.449 43.692 0.00000 -0.00000 0 
18.093 43.692 0.00000 -0.00000 0 
19.738 43.692 0.00000 -0.00000 0 
21.383 43.692 0.00000 -0.00000 0 
23.028 43.692 0.00000 -0.00000 0 
24.673 43.692 1.90878 0.03968 2 
26.318 43.692 10.55528 0.62875 2 
27.963 43.692 10.24139 0.19295 2 
29.607 43.692 10.35076 0.24684 2 
31.252 43.692 10.34514 0.67320 2 
32.897 43.692 10.46595 0.40508 2 
34.542 43.692 10.36245 0.03620 2 
36.187 43.692 10.11067 0.38941 2 
37.832 43.692 10.17160 0.25131 2 
39.477 43.692 10.20842 0.03762 2 
41.121 43.692 10.18081 0.28904 2 
42.766 43.692 10.36094 0.44970 2 
44.411 43.692 10.26128 0.23925 2 
46.056 43.692 10.39627 0.13713 2 
47.701 43.692 10.24500 0.29338 2 
49.346 43.692 10.23337 0.28723 2 
50.991 43.692 10.47632 0.08469 2 
52.636 43.692 10.41180 -0.04537 2 
54.280 43.692 10.32362 0.05833 2 
55.925 43.692 10.63682 -0.04377 2 
57.570 43.692 10.58276 0.17780 2 
59.215 43.692 10.63482 -0.06531 2 
60.860 43.692 10.11277 -0.23411 2 
62.505 43.692 10.27653 -0.14853 2 
64.150 43.692 10.55793 0.00233 2 
65.794 43.692 10.42282 -0.28476 2 
67.439 43.692 10.39676 0.09020 2 
69.084 43.692 10.14654 -0.00419 2 
70.729 43.692 10.41040 -0.06107 2 
72.374 43.692 10.58566 -0.03928 2 
74.019 43.692 10.28557 -0.22677 2 
75.664 43.692 10.25238 -0.34105 2 
77.308 43.692 10.28654 0.05218 2 
78.953 43.692 10.48305 0.08955 2 
80.598 43.692 10.45855 0.06785 2 
82.243 43.692 10.32056 -0.23392 2 
83.888 43.692 10.08714 -0.28776 2 
85.533 43.692 10.31635 -0.19766 2 
87.178 43.692 9.96209 -0.17979 2 
88.822 43.692 9.82330 -0.28516 2 
90.467 43.692 9.99943 -0.44950 2 
92.112 43.692 10.27413 -0.17841 2 
93.757 43.692 9.95086 -0.13452 2 
95.402 43.692 9.92275 -0.25110 2 
97.047 43.692 10.16208 -0.11468 2 
98.692 43.692 9.93179 -0.19503 2 
100.336 43.692 10.07159 -0.43884 2 
101.981 43.692 10.41080 -0.40763 2 
103.626 43.692 5.40911 -0.23494 2 
105.271 43.692 0.00000 -0.00000 0 
106.916 43.692 0.00000 -0.00000 0 
108.561 43.692 0.00000 -0.00000 0 
110.206 43.692 0.00000 -0.00000 0 
111.850 43.692 5.19383 0.12397 2 
113.495 43.692 10.17360 -0.30276 2 
115.140 43.692 9.98735 -0.22628 2 
116.785 43.692 9.66182 -0.40868 2 
118.430 43.692 9.84193 -0.57121 2 
120.075 43.692 9.94024 -0.05124 2 
121.720 43.692 10.25369 -0.10171 2 
123.364 43.692 10.11855 -0.57266 2 
125.009 43.692 9.99692 0.04568 2 
126.654 43.692 9.77648 -0.22937 2 
128.299 43.692 9.88629 -0.24540 2 
129.944 43.692 9.74080 0.05646 2 
131.589 43.692 9.58111 -0.43321 2 
133.234 43.692 9.78368 -0.27487 2 
134.879 43.692 9.65911 -0.09570 2 
136.523 43.692 9.89932 -0.20623 2 
138.168 43.692 9.87926 0.09595 2 
139.813 43.692 9.81109 -0.13684 2 
141.458 43.692 9.62180 -0.43927 2 
143.103 43.692 9.75762 -0.53260 2 
144.748 43.692 9.93279 0.09324 2 
146.393 43.692 9.70740 -0.16621 2 
148.037 43.692 9.67391 -0.06419 2 
149.682 43.692 9.96055 0.15721 2 
151.327 43.692 9.62263 -0.15515 2 
152.972 43.692 0.00000 -0.00000 0 
-13.159 42.047 0.00000 -0.00000 0 
-11.514 42.047 9.55050 0.44634 2 
-9.869 42.047 9.78141 0.28667 2 
-8.224 42.047 9.94981 0.27269 2 
-6.579 42.047 9.89666 0.48174 2 
-4.935 42.047 9.85968 0.41797 2 
-3.290 42.047 9.88681 0.22341 2 
-1.645 42.047 9.65357 0.48690 2 
0.000 42.047 9.97787 0.29098 2 
1.645 42.047 10.35011 0.38361 2 
3.290 42.047 9.63127 0.36156 2 
4.935 42.047 9.61672 0.18034 2 
6.579 42.047 0.00000 -0.00000 0 
8.224 42.047 0.00000 -0.00000 0 
9.869 42.047 0.00000 -0.00000 0 
11.514 42.047 0.00000 -0.00000 0 
13.159 42.047 0.00000 -0.00000 0 
14.804 42.047 0.00000 -0.00000 0 
16.449 42.047 0.00000 -0.00000 0 
18.093 42.047 0.00000 -0.00000 0 
19.738 42.047 0.00000 -0.00000 0 
21.383 42.047 0.00000 -0.00000 0 
23.028 42.047 0.00000 -0.00000 0 
24.673 42.047 5.14663 0.08304 2 
26.318 42.047 10.29326 0.16609 2 
27.963 42.047 10.18058 0.47960 2 
29.607 42.047 10.11770 0.56803 2 
31.252 42.047 10.15159 0.62584 2 
32.897 42.047 10.46266 0.53109 2 
34.542 42.047 10.46443 0.28163 2 
36.187 42.047 10.32910 0.30192 2 
37.832 42.047 10.36346 0.35967 2 
39.477 42.047 10.44245 0.11772 2 
41.121 42.047 10.46475 0.30754 2 
42.766 42.047 10.39735 0.15111 2 
44.411 42.047 10.21142 0.23734 2 
46.056 42.047 10.48757 0.23041 2 
47.701 42.047 10.47199 0.24051 2 
49.346 42.047 10.36852 0.47991 2 
50.991 42.047 10.33289 0.09045 2 
52.636 42.047 10.48224 0.11507 2 
54.280 42.047 10.36204 0.14253 2 
55.925 42.047 10.73272 0.07141 2 
57.570 42.047 10.67453 0.17221 2 
59.215 42.047 10.41547 -0.06756 2 
60.860 42.047 10.22878 -0.11547 2 
62.505 42.047 10.19138 0.25882 2 
64.150 42.047 10.27297 -0.03330 2 
65.794 42.047 10.28869 -0.26922 2 
67.439 42.047 10.52333 0.06587 2 
69.084 42.047 10.28713 0.13553 2 
70.729 42.047 10.36879 0.04980 2 
72.374 42.047 10.28942 -0.21052 2 
74.019 42.047 10.25801 -0.04453 2 
75.664 42.047 10.41340 -0.02526 2 
77.308 42.047 10.09809 -0.16904 2 
78.953 42.047 10.09461 0.10212 2 
80.598 42.047 10.52124 -0.14838 2 
82.243 42.047 10.48846 -0.52141 2 
83.888 42.047 10.30251 -0.42724 2 
85.533 42.047 10.32910 -0.00646 2 
87.178 42.047 10.30724 -0.18414 2 
88.822 42.047 10.17353 -0.10084 2 
90.467 42.047 10.04774 -0.42955 2 
92.112 42.047 10.10958 -0.32837 2 
93.757 42.047 10.12908 -0.31020 2 
95.402 42.047 10.34090 -0.12473 2 
97.047 42.047 10.03689 -0.28871 2 
98.692 42.047 10.15101 0.02856 2 
100.336 42.047 10.00015 -0.28254 2 
101.981 42.047 10.59992 -0.50217 2 
103.626 42.047 5.29996 -0.25108 2 
105.271 42.047 0.00000 -0.00000 0 
106.916 42.047 0.00000 -0.00000 0 
108.561 42.047 0.00000 -0.00000 0 
110.206 42.047 0.00000 -0.00000 0 
111.850 42.047 5.01680 -0.31201 2 
113.495 42.047 10.03360 -0.62402 2 
115.140 42.047 10.07476 -0.39536 2 
116.785 42.047 9.84250 -0.09602 2 
118.430 42.047 9.83737 -0.58255 2 
120.075 42.047 9.82515 0.03078 2 
121.720 42.047 10.14160 -0.36629 2 
123.364 42.047 9.89435 -0.47135 2 
125.009 42.047 9.82803 -0.15321 2 
126.654 42.047 9.44748 -0.38048 2 
128.299 42.047 9.79233 -0.17925 2 
129.944 42.047 10.07406 -0.16806 2 
131.589 42.047 10.03064 -0.34353 2 
133.234 42.047 9.57981 -0.20128 2 
134.879 42.047 9.90882 -0.20806 2 
136.523 42.047 9.82358 -0.22463 2 
138.168 42.047 9.68949 -0.00915 2 
139.813 42.047 9.87858 -0.14297 2 
141.458 42.047 9.67163 -0.31512 2 
143.103 42.047 9.96133 -0.47724 2 
144.748 42.047 9.77584 0.04003 2 
146.393 42.047 9.84888 -0.00593 2 
148.037 42.047 9.89849 -0.07665 2 
149.682 42.047 10.01029 -0.05845 2 
151.327 42.047 10.03781 -0.11531 2 
152.972 42.047 0.00000 -0.00000 0 
-13.159 40.402 0.00000 -0.00000 0 
-11.514 40.402 9.90730 0.31211 2 
-9.869 40.402 9.77539 0.28016 2 
-8.224 40.402 9.91792 0.29972 2 
-6.579 40.402 9.79825 0.39401 2 
-4.935 40.402 9.65836 0.36934 2 
-3.290 40.402 9.82014 0.31194 2 
-1.645 40.402 9.92674 0.43318 2 
0.000 40.402 9.91957 0.37258 2 
1.645 40.402 10.03964 0.49794 2 
3.290 40.402 9.86699 0.39723 2 
4.935 40.402 10.24891 0.42196 2 
6.579 40.402 0.00000 -0.00000 0 
8.224 40.402 0.00000 -0.00000 0 
9.869 40.402 0.00000 -0.00000 0 
11.514 40.402 0.00000 -0.00000 0 
13.159 40.402 0.00000 -0.00000 0 
14.804 40.402 0.00000 -0.00000 0 
16.449 40.402 0.00000 -0.00000 0 
18.093 40.402 0.00000 -0.00000 0 
19.738 40.402 0.00000 -0.00000 0 
21.383 40.402 0.00000 -0.00000 0 
23.028 40.402 0.00000 -0.00000 0 
24.673 40.402 5.05676 0.21503 2 
26.318 40.402 10.11352 0.43006 2 
27.963 40.402 10.05091 0.51476 2 
29.607 40.402 10.09395 0.46054 2 
31.252 40.402 10.12163 0.43137 2 
32.897 40.402 10.50728 0.31345 2 
34.542 40.402 10.49592 0.35980 2 
36.187 40.402 10.49958 0.48999 2 
37.832 40.402 10.56253 0.30521 2 
39.477 40.402 10.58212 0.35792 2 
41.121 40.402 10.74868 0.32604 2 
42.766 40.402 10.25081 0.37361 2 
44.411 40.402 10.40201 0.48320 2 
46.056 40.402 10.51198 0.04522 2 
47.701 40.402 10.28507 0.00811 2 
49.346 40.402 10.34591 0.28034 2 
50.991 40.402 10.19299 0.11754 2 
52.636 40.402 10.20559 0.02362 2 
54.280 40.402 10.39216 -0.01067 2 
55.925 40.402 10.56229 0.10774 2 
57.570 40.402 10.62653 0.16294 2 
59.215 40.402 10.41322 0.00149 2 
60.860 40.402 10.34478 0.00316 2 
62.505 40.402 10.11322 0.00691 2 
64.150 40.402 10.16077 -0.22914 2 
65.794 40.402 10.40896 -0.35392 2 
67.439 40.402 10.54994 0.04166 2 
69.084 40.402 10.25977 0.16609 2 
70.729 40.402 10.42510 0.22113 2 
72.374 40.402 10.16795 -0.21131 2 