TITLE = "B00017"
VARIABLES = "X [mm]", "Y [mm]", "Vx [m/s]", "Vy [m/s]", "Flag"
ZONE T="Frame 1", I=102, J=77, F=POINT
-13.159 53.561 9.57214 0.20373 2 
-11.514 53.561 9.94786 0.30447 2 
-9.869 53.561 9.78670 0.29405 2 
-8.224 53.561 9.62554 0.28364 2 
-6.579 53.561 10.02625 0.15161 2 
-4.935 53.561 10.09450 0.16276 2 
-3.290 53.561 9.89970 0.24807 2 
-1.645 53.561 9.74422 0.00590 2 
0.000 53.561 10.12104 0.30307 2 
1.645 53.561 9.90192 0.31665 2 
3.290 53.561 9.87425 0.18991 2 
4.935 53.561 0.00000 -0.00000 0 
6.579 53.561 0.00000 -0.00000 0 
8.224 53.561 0.00000 -0.00000 0 
9.869 53.561 0.00000 -0.00000 0 
11.514 53.561 0.00000 -0.00000 0 
13.159 53.561 0.00000 -0.00000 0 
14.804 53.561 0.00000 -0.00000 0 
16.449 53.561 0.00000 -0.00000 0 
18.093 53.561 0.00000 -0.00000 0 
19.738 53.561 0.00000 -0.00000 0 
21.383 53.561 0.00000 -0.00000 0 
23.028 53.561 0.00000 -0.00000 0 
24.673 53.561 2.86702 -0.03256 2 
26.318 53.561 6.51477 0.11167 2 
27.963 53.561 10.16252 0.25589 2 
29.607 53.561 10.11611 0.15843 2 
31.252 53.561 10.44262 0.18833 2 
32.897 53.561 10.55367 0.29808 2 
34.542 53.561 10.32458 0.23839 2 
36.187 53.561 10.17248 0.39417 2 
37.832 53.561 10.20048 0.29403 2 
39.477 53.561 10.12366 -0.04059 2 
41.121 53.561 10.39256 -0.08183 2 
42.766 53.561 10.04238 0.08675 2 
44.411 53.561 10.18702 -0.08484 2 
46.056 53.561 10.19463 0.03538 2 
47.701 53.561 10.20224 0.15560 2 
49.346 53.561 10.09878 0.00168 2 
50.991 53.561 10.38086 0.12967 2 
52.636 53.561 10.58582 0.22729 2 
54.280 53.561 10.47309 -0.20900 2 
55.925 53.561 10.22506 0.08257 2 
57.570 53.561 10.27497 0.35868 2 
59.215 53.561 10.16378 0.09662 2 
60.860 53.561 10.32871 0.06305 2 
62.505 53.561 10.40416 0.31957 2 
64.150 53.561 9.97230 0.33430 2 
65.794 53.561 10.27411 -0.04820 2 
67.439 53.561 10.13165 -0.13626 2 
69.084 53.561 10.14532 0.20580 2 
70.729 53.561 10.08343 -0.16410 2 
72.374 53.561 10.08034 -0.05467 2 
74.019 53.561 10.23357 0.17731 2 
75.664 53.561 10.06658 0.04469 2 
77.308 53.561 10.12170 0.08370 2 
78.953 53.561 10.08184 0.25243 2 
80.598 53.561 10.03882 0.10162 2 
82.243 53.561 10.10468 -0.19512 2 
83.888 53.561 10.16826 -0.10876 2 
85.533 53.561 10.30449 0.10040 2 
87.178 53.561 9.94718 0.03727 2 
88.822 53.561 10.08093 -0.02810 2 
90.467 53.561 9.73801 -0.12695 2 
92.112 53.561 9.75309 -0.33183 2 
93.757 53.561 9.88866 -0.34436 2 
95.402 53.561 10.35213 -0.14708 2 
97.047 53.561 10.16179 -0.12472 2 
98.692 53.561 9.72081 -0.25882 2 
100.336 53.561 10.04864 -0.11529 2 
101.981 53.561 5.02432 -0.05765 2 
103.626 53.561 0.00000 -0.00000 0 
105.271 53.561 0.00000 -0.00000 0 
106.916 53.561 0.00000 -0.00000 0 
108.561 53.561 0.00000 -0.00000 0 
110.206 53.561 0.00000 -0.00000 0 
111.850 53.561 10.15567 -0.18531 2 
113.495 53.561 10.03415 -0.32050 2 
115.140 53.561 9.93955 -0.05561 2 
116.785 53.561 9.84635 -0.02542 2 
118.430 53.561 9.97570 -0.07237 2 
120.075 53.561 10.16490 -0.22574 2 
121.720 53.561 10.12488 -0.30296 2 
123.364 53.561 10.08486 -0.38018 2 
125.009 53.561 9.81314 -0.19573 2 
126.654 53.561 9.80551 -0.02678 2 
128.299 53.561 9.79789 0.14217 2 
129.944 53.561 9.69054 -0.03355 2 
131.589 53.561 9.76571 -0.07579 2 
133.234 53.561 9.84087 -0.11803 2 
134.879 53.561 9.91603 -0.16028 2 
136.523 53.561 9.99120 -0.20252 2 
138.168 53.561 9.84453 -0.08677 2 
139.813 53.561 9.75696 0.08989 2 
141.458 53.561 9.84473 -0.06035 2 
143.103 53.561 9.93250 -0.21060 2 
144.748 53.561 9.58922 -0.01792 2 
146.393 53.561 9.80430 -0.02796 2 
148.037 53.561 9.80159 -0.08157 2 
149.682 53.561 9.49037 -0.00582 2 
151.327 53.561 9.68267 -0.05422 2 
152.972 53.561 0.00000 -0.00000 0 
-13.159 51.916 9.59386 0.18275 2 
-11.514 51.916 9.89372 0.27985 2 
-9.869 51.916 9.92428 0.31642 2 
-8.224 51.916 9.82416 0.53284 2 
-6.579 51.916 10.12949 0.37699 2 
-4.935 51.916 9.98912 0.41288 2 
-3.290 51.916 9.90021 0.31695 2 
-1.645 51.916 9.76419 0.14160 2 
0.000 51.916 9.95047 0.44836 2 
1.645 51.916 9.74533 0.54741 2 
3.290 51.916 10.21138 0.63827 2 
4.935 51.916 0.00000 -0.00000 0 
6.579 51.916 0.00000 -0.00000 0 
8.224 51.916 0.00000 -0.00000 0 
9.869 51.916 0.00000 -0.00000 0 
11.514 51.916 0.00000 -0.00000 0 
13.159 51.916 0.00000 -0.00000 0 
14.804 51.916 0.00000 -0.00000 0 
16.449 51.916 0.00000 -0.00000 0 
18.093 51.916 0.00000 -0.00000 0 
19.738 51.916 0.00000 -0.00000 0 
21.383 51.916 0.00000 -0.00000 0 
23.028 51.916 0.00000 -0.00000 0 
24.673 51.916 4.18773 0.12907 2 
26.318 51.916 8.37546 0.25813 2 
27.963 51.916 10.01900 0.24413 2 
29.607 51.916 9.84419 0.37833 2 
31.252 51.916 10.14077 0.15917 2 
32.897 51.916 10.32012 0.16682 2 
34.542 51.916 10.05095 0.31457 2 
36.187 51.916 10.22179 0.49512 2 
37.832 51.916 10.21597 0.35049 2 
39.477 51.916 9.95844 0.18094 2 
41.121 51.916 10.13331 0.05174 2 
42.766 51.916 10.03851 0.38966 2 
44.411 51.916 10.19865 0.08579 2 
46.056 51.916 10.30552 0.05131 2 
47.701 51.916 10.10001 0.02979 2 
49.346 51.916 10.09353 0.04665 2 
50.991 51.916 10.19230 0.11980 2 
52.636 51.916 10.30415 -0.04320 2 
54.280 51.916 10.57328 -0.01715 2 
55.925 51.916 10.49652 0.19830 2 
57.570 51.916 10.35316 0.03602 2 
59.215 51.916 10.12006 -0.06603 2 
60.860 51.916 9.99882 0.18983 2 
62.505 51.916 10.19678 0.01540 2 
64.150 51.916 10.36065 0.14198 2 
65.794 51.916 10.46627 0.15787 2 
67.439 51.916 10.14106 -0.16431 2 
69.084 51.916 9.92118 0.26072 2 
70.729 51.916 10.22312 -0.00513 2 
72.374 51.916 9.93867 -0.40845 2 
74.019 51.916 10.27036 -0.09662 2 
75.664 51.916 9.90959 -0.36283 2 
77.308 51.916 10.33371 -0.01971 2 
78.953 51.916 10.10281 0.26512 2 
80.598 51.916 10.07464 -0.04453 2 
82.243 51.916 10.29766 -0.38954 2 
83.888 51.916 10.18969 -0.25819 2 
85.533 51.916 10.21604 0.08840 2 
87.178 51.916 9.98437 -0.02908 2 
88.822 51.916 10.00692 -0.19120 2 
90.467 51.916 9.85809 -0.37845 2 
92.112 51.916 9.66017 -0.37187 2 
93.757 51.916 9.54834 -0.21132 2 
95.402 51.916 10.19391 -0.25974 2 
97.047 51.916 10.31100 -0.00620 2 
98.692 51.916 9.58837 -0.34987 2 
100.336 51.916 9.81076 -0.27690 2 
101.981 51.916 4.90538 -0.13845 2 
103.626 51.916 0.00000 -0.00000 0 
105.271 51.916 0.00000 -0.00000 0 
106.916 51.916 0.00000 -0.00000 0 
108.561 51.916 0.00000 -0.00000 0 
110.206 51.916 0.00000 -0.00000 0 
111.850 51.916 10.21238 0.12855 2 
113.495 51.916 10.23069 -0.29906 2 
115.140 51.916 9.94942 -0.48419 2 
116.785 51.916 9.87387 0.02087 2 
118.430 51.916 9.94689 -0.23710 2 
120.075 51.916 10.14159 -0.26044 2 
121.720 51.916 9.81293 -0.26875 2 
123.364 51.916 10.35549 -0.17719 2 
125.009 51.916 10.13723 -0.30051 2 
126.654 51.916 9.76283 -0.26144 2 
128.299 51.916 9.97757 0.03132 2 
129.944 51.916 9.99923 -0.05506 2 
131.589 51.916 9.83531 -0.32103 2 
133.234 51.916 9.99575 -0.08051 2 
134.879 51.916 10.04172 -0.31619 2 
136.523 51.916 9.80364 -0.30410 2 
138.168 51.916 9.83908 -0.42182 2 
139.813 51.916 10.05147 -0.32815 2 
141.458 51.916 10.02306 -0.25633 2 
143.103 51.916 9.77561 0.08139 2 
144.748 51.916 9.54391 0.15783 2 
146.393 51.916 9.72531 -0.07915 2 
148.037 51.916 10.09087 -0.13628 2 
149.682 51.916 10.11660 -0.21857 2 
151.327 51.916 9.74423 -0.05869 2 
152.972 51.916 0.00000 -0.00000 0 
-13.159 50.271 9.72512 0.25465 2 
-11.514 50.271 9.85173 0.18422 2 
-9.869 50.271 9.87112 0.20289 2 
-8.224 50.271 10.00503 0.49258 2 
-6.579 50.271 9.83703 0.34843 2 
-4.935 50.271 9.85492 0.30551 2 
-3.290 50.271 9.86771 0.19435 2 
-1.645 50.271 9.71876 0.36223 2 
0.000 50.271 9.94660 0.45258 2 
1.645 50.271 9.90849 0.34745 2 
3.290 50.271 10.39380 0.34463 2 
4.935 50.271 5.04733 -0.16983 2 
6.579 50.271 0.00000 -0.00000 0 
8.224 50.271 0.00000 -0.00000 0 
9.869 50.271 0.00000 -0.00000 0 
11.514 50.271 0.00000 -0.00000 0 
13.159 50.271 0.00000 -0.00000 0 
14.804 50.271 0.00000 -0.00000 0 
16.449 50.271 0.00000 -0.00000 0 
18.093 50.271 0.00000 -0.00000 0 
19.738 50.271 0.00000 -0.00000 0 
21.383 50.271 0.00000 -0.00000 0 
23.028 50.271 0.00000 -0.00000 0 
24.673 50.271 5.50844 0.29069 2 
26.318 50.271 11.01688 0.58138 2 
27.963 50.271 10.07356 0.24418 2 
29.607 50.271 10.31483 0.32373 2 
31.252 50.271 10.37686 0.19212 2 
32.897 50.271 10.20079 0.13357 2 
34.542 50.271 10.27875 0.19334 2 
36.187 50.271 10.42224 0.18528 2 
37.832 50.271 10.24008 0.29305 2 
39.477 50.271 9.93378 0.36353 2 
41.121 50.271 9.93632 0.09688 2 
42.766 50.271 10.14066 0.29086 2 
44.411 50.271 10.21080 0.06027 2 
46.056 50.271 10.31716 -0.04637 2 
47.701 50.271 10.36437 0.34831 2 
49.346 50.271 10.36003 0.26040 2 
50.991 50.271 10.38304 0.09394 2 
52.636 50.271 10.45910 0.09780 2 
54.280 50.271 10.38476 -0.09002 2 
55.925 50.271 10.33271 0.00948 2 
57.570 50.271 10.47544 0.20302 2 
59.215 50.271 10.24062 -0.05224 2 
60.860 50.271 10.12515 0.23229 2 
62.505 50.271 10.12403 0.11717 2 
64.150 50.271 10.25257 0.08994 2 
65.794 50.271 10.27205 -0.07600 2 
67.439 50.271 10.21010 -0.05909 2 
69.084 50.271 10.20909 0.20760 2 
70.729 50.271 10.38026 0.15493 2 
72.374 50.271 10.06727 -0.12188 2 
74.019 50.271 10.31936 -0.32937 2 
75.664 50.271 10.48763 -0.29924 2 
77.308 50.271 10.20369 -0.53761 2 
78.953 50.271 10.48852 -0.08433 2 
80.598 50.271 10.51111 -0.09795 2 
82.243 50.271 10.39413 -0.14957 2 
83.888 50.271 10.04328 -0.04582 2 
85.533 50.271 9.95325 -0.06700 2 
87.178 50.271 10.31623 -0.19084 2 
88.822 50.271 10.23567 -0.23817 2 
90.467 50.271 9.93521 -0.30256 2 
92.112 50.271 9.82842 -0.32957 2 
93.757 50.271 9.72277 -0.49882 2 
95.402 50.271 10.04846 -0.27085 2 
97.047 50.271 10.51560 -0.10589 2 
98.692 50.271 10.21778 -0.23950 2 
100.336 50.271 9.72532 -0.51154 2 
101.981 50.271 10.36670 -0.35637 2 
103.626 50.271 0.00000 -0.00000 0 
105.271 50.271 0.00000 -0.00000 0 
106.916 50.271 0.00000 -0.00000 0 
108.561 50.271 0.00000 -0.00000 0 
110.206 50.271 0.00000 -0.00000 0 
111.850 50.271 5.11439 -0.17767 2 
113.495 50.271 10.22878 -0.35533 2 
115.140 50.271 9.94935 -0.36267 2 
116.785 50.271 9.90139 0.06717 2 
118.430 50.271 10.17939 -0.28490 2 
120.075 50.271 10.02153 0.20651 2 
121.720 50.271 9.94145 -0.11139 2 
123.364 50.271 9.96168 0.04824 2 
125.009 50.271 10.03191 0.20007 2 
126.654 50.271 9.97641 -0.07949 2 
128.299 50.271 10.13266 -0.09612 2 
129.944 50.271 9.92662 -0.09503 2 
131.589 50.271 9.70785 -0.22776 2 
133.234 50.271 9.96048 -0.21935 2 
134.879 50.271 9.87528 0.11100 2 
136.523 50.271 9.70421 -0.29814 2 
138.168 50.271 9.97145 -0.59079 2 
139.813 50.271 9.90562 -0.44174 2 
141.458 50.271 9.71381 -0.27429 2 
143.103 50.271 9.69570 0.21530 2 
144.748 50.271 9.75562 -0.11705 2 
146.393 50.271 9.81727 -0.19379 2 
148.037 50.271 9.87893 -0.27053 2 
149.682 50.271 10.29594 -0.12880 2 
151.327 50.271 9.80579 -0.06317 2 
152.972 50.271 0.00000 -0.00000 0 
-13.159 48.626 9.57959 0.25008 2 
-11.514 48.626 9.83685 0.21332 2 
-9.869 48.626 9.80460 0.26912 2 
-8.224 48.626 9.77873 0.49719 2 
-6.579 48.626 9.74460 0.36380 2 
-4.935 48.626 10.00462 0.23539 2 
-3.290 48.626 9.92454 0.31337 2 
-1.645 48.626 9.84558 0.41535 2 
0.000 48.626 10.04111 0.35885 2 
1.645 48.626 9.73362 0.30575 2 
3.290 48.626 10.23119 0.37798 2 
4.935 48.626 5.24208 0.48263 2 
6.579 48.626 0.00000 -0.00000 0 
8.224 48.626 0.00000 -0.00000 0 
9.869 48.626 0.00000 -0.00000 0 
11.514 48.626 0.00000 -0.00000 0 
13.159 48.626 0.00000 -0.00000 0 
14.804 48.626 0.00000 -0.00000 0 
16.449 48.626 0.00000 -0.00000 0 
18.093 48.626 0.00000 -0.00000 0 
19.738 48.626 0.00000 -0.00000 0 
21.383 48.626 0.00000 -0.00000 0 
23.028 48.626 0.00000 -0.00000 0 
24.673 48.626 5.75101 0.14092 2 
26.318 48.626 11.50202 0.28184 2 
27.963 48.626 10.39231 0.52249 2 
29.607 48.626 10.33455 0.33025 2 
31.252 48.626 10.33660 0.23968 2 
32.897 48.626 10.13283 0.25923 2 
34.542 48.626 10.40223 0.19389 2 
36.187 48.626 10.49261 0.10682 2 
37.832 48.626 10.30675 0.27216 2 
39.477 48.626 10.22546 0.15427 2 
41.121 48.626 9.97502 -0.05960 2 
42.766 48.626 10.24281 0.19207 2 
44.411 48.626 10.22730 0.07167 2 
46.056 48.626 10.34116 0.21431 2 
47.701 48.626 10.47949 0.33510 2 
49.346 48.626 10.44355 0.38213 2 
50.991 48.626 10.42198 0.02178 2 
52.636 48.626 10.42814 0.15782 2 
54.280 48.626 10.25629 -0.07683 2 
55.925 48.626 10.25501 -0.03506 2 
57.570 48.626 10.34824 0.18179 2 
59.215 48.626 10.32626 0.01218 2 
60.860 48.626 10.49037 -0.03784 2 
62.505 48.626 10.35360 -0.02093 2 
64.150 48.626 10.24606 0.00557 2 
65.794 48.626 10.19765 -0.17155 2 
67.439 48.626 10.53884 -0.02873 2 
69.084 48.626 10.46505 0.12418 2 
70.729 48.626 10.34000 -0.06412 2 
72.374 48.626 10.20261 -0.17026 2 
74.019 48.626 10.45462 -0.26821 2 
75.664 48.626 10.62689 -0.14724 2 
77.308 48.626 10.13951 -0.34873 2 
78.953 48.626 10.40743 -0.26098 2 
80.598 48.626 10.46862 -0.21142 2 
82.243 48.626 10.19479 -0.17585 2 
83.888 48.626 10.27998 -0.05939 2 
85.533 48.626 10.25396 -0.18502 2 
87.178 48.626 10.09985 -0.14813 2 
88.822 48.626 10.14270 -0.37779 2 
90.467 48.626 10.19954 -0.07366 2 
92.112 48.626 9.99667 -0.28727 2 
93.757 48.626 9.86458 -0.30018 2 
95.402 48.626 9.90300 -0.28195 2 
97.047 48.626 10.47110 -0.41630 2 
98.692 48.626 10.39987 -0.44360 2 
100.336 48.626 9.85196 -0.51563 2 
101.981 48.626 10.22277 -0.34508 2 
103.626 48.626 5.11138 -0.17254 2 
105.271 48.626 0.00000 -0.00000 0 
106.916 48.626 0.00000 -0.00000 0 
108.561 48.626 0.00000 -0.00000 0 
110.206 48.626 0.00000 -0.00000 0 
111.850 48.626 4.93153 -0.18506 2 
113.495 48.626 9.86305 -0.37013 2 
115.140 48.626 9.96811 -0.25455 2 
116.785 48.626 10.07253 -0.00865 2 
118.430 48.626 9.89553 -0.29007 2 
120.075 48.626 9.81725 -0.05776 2 
121.720 48.626 10.06997 0.04597 2 
123.364 48.626 9.84775 -0.11180 2 
125.009 48.626 9.62200 -0.06983 2 
126.654 48.626 9.92168 -0.19054 2 
128.299 48.626 9.86861 0.17750 2 
129.944 48.626 10.09948 0.00191 2 
131.589 48.626 9.91037 -0.30314 2 
133.234 48.626 9.92521 -0.35820 2 
134.879 48.626 9.83543 0.05717 2 
136.523 48.626 9.84861 -0.10367 2 
138.168 48.626 9.52177 -0.20364 2 
139.813 48.626 9.76301 -0.47361 2 
141.458 48.626 9.64052 -0.58404 2 
143.103 48.626 9.75994 0.28793 2 
144.748 48.626 9.63787 -0.08341 2 
146.393 48.626 9.77802 -0.12308 2 
148.037 48.626 9.91818 -0.16275 2 
149.682 48.626 9.98024 0.06003 2 
151.327 48.626 10.32142 -0.19312 2 
152.972 48.626 0.00000 -0.00000 0 
-13.159 46.981 9.41296 0.24888 2 
-11.514 46.981 9.88300 0.21384 2 
-9.869 46.981 9.87345 0.37983 2 
-8.224 46.981 9.93747 0.31335 2 
-6.579 46.981 9.91485 0.49329 2 
-4.935 46.981 10.00613 0.55975 2 
-3.290 46.981 9.91744 0.29274 2 
-1.645 46.981 9.76157 0.21093 2 
0.000 46.981 9.96048 0.32699 2 
1.645 46.981 9.85147 0.35522 2 
3.290 46.981 10.05733 0.45144 2 
4.935 46.981 7.77426 0.55209 2 
6.579 46.981 0.00000 -0.00000 0 
8.224 46.981 0.00000 -0.00000 0 
9.869 46.981 0.00000 -0.00000 0 
11.514 46.981 0.00000 -0.00000 0 
13.159 46.981 0.00000 -0.00000 0 
14.804 46.981 0.00000 -0.00000 0 
16.449 46.981 0.00000 -0.00000 0 
18.093 46.981 0.00000 -0.00000 0 
19.738 46.981 0.00000 -0.00000 0 
21.383 46.981 0.00000 -0.00000 0 
23.028 46.981 0.00000 -0.00000 0 
24.673 46.981 5.57152 0.19553 2 
26.318 46.981 11.14304 0.39107 2 
27.963 46.981 10.44506 0.36751 2 
29.607 46.981 10.09474 0.29817 2 
31.252 46.981 10.06948 0.42229 2 
32.897 46.981 10.18781 0.44415 2 
34.542 46.981 10.08875 0.38754 2 
36.187 46.981 10.23604 0.36161 2 
37.832 46.981 10.29155 0.32542 2 
39.477 46.981 10.45821 0.22827 2 
41.121 46.981 10.24433 0.19580 2 
42.766 46.981 10.29953 0.16847 2 
44.411 46.981 10.15644 0.12605 2 
46.056 46.981 10.33151 0.20162 2 
47.701 46.981 10.15899 0.14874 2 
49.346 46.981 10.53446 0.22281 2 
50.991 46.981 10.17692 -0.15186 2 
52.636 46.981 9.90529 0.18526 2 
54.280 46.981 10.02755 0.11347 2 
55.925 46.981 10.29224 -0.03886 2 
57.570 46.981 10.39198 -0.02771 2 
59.215 46.981 10.33722 0.06135 2 
60.860 46.981 10.54626 -0.00193 2 
62.505 46.981 10.44116 -0.13024 2 
64.150 46.981 10.38497 -0.08916 2 
65.794 46.981 10.20210 0.12362 2 
67.439 46.981 10.52080 0.24161 2 
69.084 46.981 10.33512 0.14027 2 
70.729 46.981 10.01691 -0.10299 2 
72.374 46.981 10.21614 -0.27360 2 
74.019 46.981 10.40180 -0.30676 2 
75.664 46.981 10.36923 -0.15531 2 
77.308 46.981 10.08817 -0.10559 2 
78.953 46.981 10.36872 -0.23086 2 
80.598 46.981 10.25707 -0.38689 2 
82.243 46.981 10.31209 -0.30503 2 
83.888 46.981 10.28809 -0.23191 2 
85.533 46.981 10.46534 -0.27010 2 
87.178 46.981 10.21237 -0.06479 2 
88.822 46.981 10.00015 -0.33500 2 
90.467 46.981 10.26657 -0.28066 2 
92.112 46.981 10.00404 -0.16306 2 
93.757 46.981 9.96200 -0.22104 2 
95.402 46.981 10.02933 -0.49707 2 
97.047 46.981 10.12703 -0.31156 2 
98.692 46.981 10.21257 -0.03248 2 
100.336 46.981 9.94619 -0.38806 2 
101.981 46.981 10.20996 -0.52755 2 
103.626 46.981 5.10498 -0.26377 2 
105.271 46.981 0.00000 -0.00000 0 
106.916 46.981 0.00000 -0.00000 0 
108.561 46.981 0.00000 -0.00000 0 
110.206 46.981 0.00000 -0.00000 0 
111.850 46.981 5.16546 -0.07669 2 
113.495 46.981 10.33093 -0.15337 2 
115.140 46.981 10.23884 -0.01909 2 
116.785 46.981 10.02516 -0.17996 2 
118.430 46.981 9.86487 -0.14537 2 
120.075 46.981 9.94851 -0.06668 2 
121.720 46.981 10.12830 -0.28951 2 
123.364 46.981 9.75070 -0.29984 2 
125.009 46.981 9.78950 -0.23016 2 
126.654 46.981 9.86694 -0.30159 2 
128.299 46.981 9.63684 -0.08054 2 
129.944 46.981 10.06111 -0.01274 2 
131.589 46.981 10.11288 -0.37853 2 
133.234 46.981 9.93823 -0.38333 2 
134.879 46.981 9.66172 -0.14763 2 
136.523 46.981 9.79124 -0.08811 2 
138.168 46.981 9.61041 0.13294 2 
139.813 46.981 10.03195 -0.13513 2 
141.458 46.981 9.90483 -0.30023 2 
143.103 46.981 9.94825 0.13357 2 
144.748 46.981 9.93617 -0.01970 2 
146.393 46.981 9.55424 -0.17177 2 
148.037 46.981 9.78714 -0.05091 2 
149.682 46.981 9.73425 -0.14046 2 
151.327 46.981 10.05456 -0.11629 2 
152.972 46.981 0.00000 -0.00000 0 
-13.159 45.336 9.40275 0.29961 2 
-11.514 45.336 9.76062 0.29335 2 
-9.869 45.336 9.82861 0.35669 2 
-8.224 45.336 9.89133 0.21299 2 
-6.579 45.336 9.93915 0.50986 2 
-4.935 45.336 9.82419 0.70678 2 
-3.290 45.336 9.81822 0.43848 2 
-1.645 45.336 9.67843 0.11625 2 
0.000 45.336 9.92142 0.40707 2 
1.645 45.336 10.11942 0.36161 2 
3.290 45.336 9.94597 0.22601 2 
4.935 45.336 10.30643 0.62154 2 
6.579 45.336 0.00000 -0.00000 0 
8.224 45.336 0.00000 -0.00000 0 
9.869 45.336 0.00000 -0.00000 0 
11.514 45.336 0.00000 -0.00000 0 
13.159 45.336 0.00000 -0.00000 0 
14.804 45.336 0.00000 -0.00000 0 
16.449 45.336 0.00000 -0.00000 0 
18.093 45.336 0.00000 -0.00000 0 
19.738 45.336 0.00000 -0.00000 0 
21.383 45.336 0.00000 -0.00000 0 
23.028 45.336 0.00000 -0.00000 0 
24.673 45.336 5.47883 0.21593 2 
26.318 45.336 10.95766 0.43187 2 
27.963 45.336 10.25465 0.43849 2 
29.607 45.336 10.03606 0.32612 2 
31.252 45.336 10.22606 0.42031 2 
32.897 45.336 10.30414 0.40138 2 
34.542 45.336 10.04872 0.32934 2 
36.187 45.336 10.32244 0.31144 2 
37.832 45.336 10.28222 0.35762 2 
39.477 45.336 10.37161 0.58387 2 
41.121 45.336 10.27079 0.52884 2 
42.766 45.336 10.36480 0.40043 2 
44.411 45.336 10.08557 0.18043 2 
46.056 45.336 10.32187 0.18893 2 
47.701 45.336 10.44224 0.19326 2 
49.346 45.336 10.54679 0.19409 2 
50.991 45.336 10.27826 -0.02263 2 
52.636 45.336 10.25178 0.15276 2 
54.280 45.336 10.07798 0.04930 2 
55.925 45.336 10.06981 -0.09470 2 
57.570 45.336 10.25946 0.02052 2 
59.215 45.336 10.17765 -0.04049 2 
60.860 45.336 10.59166 0.10084 2 
62.505 45.336 10.12548 0.34348 2 
64.150 45.336 10.08240 0.31265 2 
65.794 45.336 10.10829 0.11671 2 
67.439 45.336 10.07053 0.16240 2 
69.084 45.336 10.06608 -0.01958 2 
70.729 45.336 10.23217 -0.24107 2 
72.374 45.336 10.43353 -0.28774 2 
74.019 45.336 10.41233 -0.18989 2 
75.664 45.336 10.10614 -0.01366 2 
77.308 45.336 10.12105 0.05935 2 
78.953 45.336 10.55591 -0.18088 2 
80.598 45.336 10.29786 -0.08755 2 
82.243 45.336 10.42939 -0.43422 2 
83.888 45.336 10.00487 -0.24836 2 
85.533 45.336 10.23856 -0.10596 2 
87.178 45.336 10.47226 0.03643 2 
88.822 45.336 10.29643 -0.22093 2 
90.467 45.336 10.20637 -0.46017 2 
92.112 45.336 10.01140 -0.03885 2 
93.757 45.336 10.15898 -0.24083 2 
95.402 45.336 10.25482 -0.22937 2 
97.047 45.336 10.22983 -0.20793 2 
98.692 45.336 10.31657 0.00988 2 
100.336 45.336 10.19548 -0.38026 2 
101.981 45.336 11.02625 -0.25308 2 
103.626 45.336 5.51313 -0.12654 2 
105.271 45.336 0.00000 -0.00000 0 
106.916 45.336 0.00000 -0.00000 0 
108.561 45.336 0.00000 -0.00000 0 
110.206 45.336 0.00000 -0.00000 0 
111.850 45.336 5.44519 -0.14693 2 
113.495 45.336 10.89038 -0.29387 2 
115.140 45.336 10.05853 -0.19414 2 
116.785 45.336 9.90694 -0.46964 2 
118.430 45.336 10.10009 -0.37984 2 
120.075 45.336 10.03439 -0.20952 2 
121.720 45.336 9.88487 -0.53666 2 
123.364 45.336 9.65364 -0.48789 2 
125.009 45.336 9.99006 -0.18018 2 
126.654 45.336 10.23191 -0.18169 2 
128.299 45.336 9.91486 -0.26880 2 
129.944 45.336 10.02273 -0.02740 2 
131.589 45.336 9.51546 -0.07467 2 
133.234 45.336 9.83711 -0.38480 2 
134.879 45.336 9.69190 -0.15200 2 
136.523 45.336 9.89268 0.08224 2 
138.168 45.336 9.84812 0.16257 2 
139.813 45.336 10.05812 -0.16770 2 
141.458 45.336 9.78236 -0.09962 2 
143.103 45.336 9.83227 -0.12731 2 
144.748 45.336 9.85324 -0.24600 2 
146.393 45.336 9.61393 -0.11409 2 
148.037 45.336 9.61397 -0.17488 2 
149.682 45.336 9.66917 -0.13172 2 
151.327 45.336 9.92403 0.00502 2 
152.972 45.336 0.00000 -0.00000 0 
-13.159 43.692 9.39810 0.33578 2 
-11.514 43.692 9.67807 0.12761 2 
-9.869 43.692 9.81145 0.28065 2 
-8.224 43.692 9.77263 0.24663 2 
-6.579 43.692 9.73161 0.34760 2 
-4.935 43.692 9.79442 0.48467 2 
-3.290 43.692 9.93998 0.39218 2 
-1.645 43.692 9.86295 0.16986 2 
0.000 43.692 10.02068 0.58317 2 
1.645 43.692 10.08399 0.62463 2 
3.290 43.692 9.73040 0.29069 2 
4.935 43.692 9.78216 0.14099 2 
6.579 43.692 0.00000 -0.00000 0 
8.224 43.692 0.00000 -0.00000 0 
9.869 43.692 0.00000 -0.00000 0 
11.514 43.692 0.00000 -0.00000 0 
13.159 43.692 0.00000 -0.00000 0 
14.804 43.692 0.00000 -0.00000 0 
16.449 43.692 0.00000 -0.00000 0 
18.093 43.692 0.00000 -0.00000 0 
19.738 43.692 0.00000 -0.00000 0 
21.383 43.692 0.00000 -0.00000 0 
23.028 43.692 0.00000 -0.00000 0 
24.673 43.692 5.30405 0.05110 2 
26.318 43.692 10.60811 0.10220 2 
27.963 43.692 10.19322 0.39262 2 
29.607 43.692 10.15340 0.28832 2 
31.252 43.692 10.35322 0.37108 2 
32.897 43.692 10.22560 0.48732 2 
34.542 43.692 10.12902 0.23251 2 
36.187 43.692 10.42171 0.27233 2 
37.832 43.692 10.31737 0.49747 2 
39.477 43.692 10.48847 0.36366 2 
41.121 43.692 10.37571 0.26084 2 
42.766 43.692 10.39048 0.17711 2 
44.411 43.692 10.48304 0.15376 2 
46.056 43.692 10.63221 0.12925 2 
47.701 43.692 10.46108 0.22858 2 
49.346 43.692 10.19000 0.29409 2 
50.991 43.692 10.27115 0.09821 2 
52.636 43.692 10.23972 0.07323 2 
54.280 43.692 10.17456 -0.06106 2 
55.925 43.692 10.07089 0.03397 2 
57.570 43.692 10.12693 0.06875 2 
59.215 43.692 10.14637 0.18784 2 
60.860 43.692 10.53442 0.05085 2 
62.505 43.692 10.47823 -0.06244 2 
64.150 43.692 10.37525 0.24679 2 
65.794 43.692 10.22079 -0.20822 2 
67.439 43.692 10.35318 -0.05618 2 
69.084 43.692 10.16906 -0.02664 2 
70.729 43.692 10.64374 0.01008 2 
72.374 43.692 10.31590 -0.07377 2 
74.019 43.692 10.05660 0.18122 2 
75.664 43.692 10.32403 -0.23550 2 
77.308 43.692 10.41847 0.03549 2 
78.953 43.692 10.58261 -0.06871 2 
80.598 43.692 10.30915 0.06868 2 
82.243 43.692 10.16685 -0.20627 2 
83.888 43.692 9.98591 -0.26404 2 
85.533 43.692 10.22851 -0.25097 2 
87.178 43.692 10.40342 -0.03884 2 
88.822 43.692 10.33009 -0.12311 2 
90.467 43.692 10.42540 -0.23466 2 
92.112 43.692 10.14711 -0.35359 2 
93.757 43.692 10.09490 -0.34008 2 
95.402 43.692 9.96463 -0.11964 2 
97.047 43.692 10.39770 -0.35641 2 
98.692 43.692 9.99887 -0.20808 2 
100.336 43.692 10.36883 -0.07460 2 
101.981 43.692 10.91628 -0.18230 2 
103.626 43.692 4.78856 0.19549 2 
105.271 43.692 0.00000 -0.00000 0 
106.916 43.692 0.00000 -0.00000 0 
108.561 43.692 0.00000 -0.00000 0 
110.206 43.692 0.00000 -0.00000 0 
111.850 43.692 7.99149 -0.06014 2 
113.495 43.692 10.36760 -0.22825 2 
115.140 43.692 9.87821 -0.36919 2 
116.785 43.692 9.74632 -0.16435 2 
118.430 43.692 10.12435 -0.51628 2 
120.075 43.692 10.23758 -0.44876 2 
121.720 43.692 9.99890 -0.36000 2 
123.364 43.692 9.68538 -0.49556 2 
125.009 43.692 10.00266 -0.13647 2 
126.654 43.692 10.01720 -0.18959 2 
128.299 43.692 10.08131 -0.08658 2 
129.944 43.692 9.89570 -0.08414 2 
131.589 43.692 9.69904 -0.39906 2 
133.234 43.692 9.61405 -0.35277 2 
134.879 43.692 9.83575 -0.07433 2 
136.523 43.692 9.98200 -0.05928 2 
138.168 43.692 9.66045 -0.37968 2 
139.813 43.692 9.77609 -0.00569 2 
141.458 43.692 9.71932 -0.24106 2 
143.103 43.692 9.54584 -0.49946 2 
144.748 43.692 9.77031 -0.47230 2 
146.393 43.692 9.71811 -0.51674 2 
148.037 43.692 9.87075 0.07936 2 
149.682 43.692 9.86514 -0.21013 2 
151.327 43.692 10.13470 -0.12807 2 
152.972 43.692 0.00000 -0.00000 0 
-13.159 42.047 9.48427 0.28666 2 
-11.514 42.047 9.65532 0.25186 2 
-9.869 42.047 9.84578 0.51388 2 
-8.224 42.047 9.89902 0.49888 2 
-6.579 42.047 9.87371 0.42887 2 
-4.935 42.047 9.84391 0.32942 2 
-3.290 42.047 9.72534 0.25446 2 
-1.645 42.047 9.65770 0.56345 2 
0.000 42.047 10.01401 0.73098 2 
1.645 42.047 9.92940 0.63381 2 
3.290 42.047 9.72075 0.52396 2 
4.935 42.047 9.52174 0.75589 2 
6.579 42.047 0.00000 -0.00000 0 
8.224 42.047 0.00000 -0.00000 0 
9.869 42.047 0.00000 -0.00000 0 
11.514 42.047 0.00000 -0.00000 0 
13.159 42.047 0.00000 -0.00000 0 
14.804 42.047 0.00000 -0.00000 0 
16.449 42.047 0.00000 -0.00000 0 
18.093 42.047 0.00000 -0.00000 0 
19.738 42.047 0.00000 -0.00000 0 
21.383 42.047 0.00000 -0.00000 0 
23.028 42.047 0.00000 -0.00000 0 
24.673 42.047 -1.43248 0.08668 2 
26.318 42.047 10.54179 0.24169 2 
27.963 42.047 9.99581 0.35856 2 
29.607 42.047 10.10461 0.32965 2 
31.252 42.047 10.19721 0.59299 2 
32.897 42.047 10.51845 0.60062 2 
34.542 42.047 10.20053 0.25966 2 
36.187 42.047 10.10679 0.36676 2 
37.832 42.047 10.37984 0.55096 2 
39.477 42.047 10.51602 0.14886 2 
41.121 42.047 10.35708 0.03986 2 
42.766 42.047 10.26842 0.14447 2 
44.411 42.047 10.37986 0.30810 2 
46.056 42.047 10.45631 0.02122 2 
47.701 42.047 10.11766 0.37576 2 
49.346 42.047 10.27469 0.45327 2 
50.991 42.047 10.26201 0.02541 2 
52.636 42.047 10.22765 -0.00630 2 
54.280 42.047 10.09936 0.22661 2 
55.925 42.047 10.33141 0.01812 2 
57.570 42.047 10.56221 0.03560 2 
59.215 42.047 10.43506 0.22378 2 
60.860 42.047 10.32049 -0.05053 2 
62.505 42.047 10.71043 -0.20203 2 
64.150 42.047 10.62242 -0.13670 2 
65.794 42.047 10.33274 -0.31663 2 
67.439 42.047 10.48358 0.08545 2 
69.084 42.047 10.42606 -0.00747 2 
70.729 42.047 10.69372 0.15348 2 
72.374 42.047 10.43970 0.32297 2 
74.019 42.047 10.67955 0.10912 2 
75.664 42.047 10.55956 -0.24655 2 
77.308 42.047 10.24144 -0.28719 2 
78.953 42.047 10.23966 -0.50613 2 
80.598 42.047 10.13271 -0.32464 2 
82.243 42.047 10.17229 -0.17777 2 
83.888 42.047 9.96695 -0.27973 2 
85.533 42.047 10.20451 -0.21746 2 
87.178 42.047 10.33459 -0.11411 2 
88.822 42.047 10.05254 0.09152 2 
90.467 42.047 10.05796 -0.12027 2 
92.112 42.047 10.01661 -0.26447 2 
93.757 42.047 9.84195 -0.23552 2 
95.402 42.047 9.76593 -0.03653 2 
97.047 42.047 10.38892 -0.18050 2 
98.692 42.047 9.86149 -0.38430 2 
100.336 42.047 10.46487 -0.60024 2 
101.981 42.047 10.69002 -0.40665 2 
103.626 42.047 7.49348 0.13463 2 
105.271 42.047 0.00000 -0.00000 0 
106.916 42.047 0.00000 -0.00000 0 
108.561 42.047 0.00000 -0.00000 0 
110.206 42.047 0.00000 -0.00000 0 
111.850 42.047 4.92241 -0.08132 2 
113.495 42.047 9.84481 -0.16264 2 
115.140 42.047 9.68876 -0.27686 2 
116.785 42.047 9.74678 -0.17541 2 
118.430 42.047 9.74396 -0.24551 2 
120.075 42.047 10.12118 -0.60191 2 
121.720 42.047 9.94034 -0.46011 2 
123.364 42.047 9.73570 -0.05007 2 
125.009 42.047 10.01526 -0.09276 2 
126.654 42.047 9.97828 -0.27713 2 
128.299 42.047 9.51313 -0.28715 2 
129.944 42.047 9.99956 -0.02389 2 
131.589 42.047 10.13644 -0.15097 2 
133.234 42.047 9.89863 -0.24767 2 
134.879 42.047 9.90314 -0.23689 2 
136.523 42.047 9.59304 -0.50150 2 
138.168 42.047 9.61675 -0.23334 2 
139.813 42.047 9.60519 0.15068 2 
141.458 42.047 9.82485 -0.25198 2 
143.103 42.047 9.53518 -0.13217 2 
144.748 42.047 9.63063 -0.32033 2 
146.393 42.047 9.92788 -0.12631 2 
148.037 42.047 9.99561 -0.15462 2 
149.682 42.047 9.56921 -0.51458 2 
151.327 42.047 10.34538 -0.26116 2 
152.972 42.047 0.00000 -0.00000 0 
-13.159 40.402 9.53382 0.22575 2 
-11.514 40.402 9.64576 0.42888 2 
-9.869 40.402 9.63863 0.32827 2 
-8.224 40.402 10.05378 0.27536 2 
-6.579 40.402 10.08533 0.12947 2 
-4.935 40.402 9.83503 0.23706 2 
-3.290 40.402 9.69274 0.41777 2 
-1.645 40.402 9.66950 0.61825 2 
0.000 40.402 10.03205 0.73977 2 
1.645 40.402 9.90447 0.39696 2 
3.290 40.402 9.94187 0.50710 2 
4.935 40.402 10.14812 0.77099 2 
6.579 40.402 0.00000 -0.00000 0 
8.224 40.402 0.00000 -0.00000 0 
9.869 40.402 0.00000 -0.00000 0 
11.514 40.402 0.00000 -0.00000 0 
13.159 40.402 0.00000 -0.00000 0 
14.804 40.402 0.00000 -0.00000 0 
16.449 40.402 0.00000 -0.00000 0 
18.093 40.402 0.00000 -0.00000 0 
19.738 40.402 0.00000 -0.00000 0 
21.383 40.402 0.00000 -0.00000 0 
23.028 40.402 0.00000 -0.00000 0 
24.673 40.402 2.92944 0.30630 2 
26.318 40.402 10.54351 0.54248 2 
27.963 40.402 9.96796 0.60284 2 
29.607 40.402 10.05471 0.45230 2 
31.252 40.402 9.93795 0.54012 2 
32.897 40.402 10.41778 0.54282 2 
34.542 40.402 10.39364 0.21123 2 
36.187 40.402 10.35697 0.39695 2 
37.832 40.402 10.33420 0.65476 2 
39.477 40.402 10.17702 0.03636 2 
41.121 40.402 10.33845 -0.18111 2 
42.766 40.402 10.50935 0.20824 2 
44.411 40.402 10.55338 0.21544 2 
46.056 40.402 10.51069 0.08847 2 
47.701 40.402 10.24601 0.19979 2 
49.346 40.402 10.34211 0.35583 2 
50.991 40.402 10.21726 0.10398 2 
52.636 40.402 10.06508 -0.11590 2 
54.280 40.402 10.17974 0.02382 2 
55.925 40.402 10.32006 -0.26709 2 
57.570 40.402 10.56664 -0.04258 2 
59.215 40.402 10.47967 -0.09140 2 
60.860 40.402 10.20766 -0.31625 2 
62.505 40.402 10.68997 -0.14716 2 
64.150 40.402 10.66605 0.06806 2 
65.794 40.402 10.55959 0.14431 2 
67.439 40.402 10.48661 0.19289 2 
69.084 40.402 10.20220 0.00234 2 
70.729 40.402 10.44405 0.34273 2 
72.374 40.402 10.47958 0.12817 2 
74.019 40.402 10.49660 0.18799 2 