TITLE = "B00018"
VARIABLES = "X [mm]", "Y [mm]", "Vx [m/s]", "Vy [m/s]", "Flag"
ZONE T="Frame 1", I=102, J=77, F=POINT
-13.159 53.561 0.00000 -0.00000 0 
-11.514 53.561 9.45016 0.02476 2 
-9.869 53.561 9.85630 -0.00182 2 
-8.224 53.561 9.85397 -0.08391 2 
-6.579 53.561 9.89140 0.05745 2 
-4.935 53.561 9.92884 0.19881 2 
-3.290 53.561 9.95120 0.24125 2 
-1.645 53.561 10.14285 0.09685 2 
0.000 53.561 10.11576 0.34686 2 
1.645 53.561 9.71289 0.28676 2 
3.290 53.561 9.78302 0.32858 2 
4.935 53.561 0.00000 -0.00000 0 
6.579 53.561 0.00000 -0.00000 0 
8.224 53.561 0.00000 -0.00000 0 
9.869 53.561 0.00000 -0.00000 0 
11.514 53.561 0.00000 -0.00000 0 
13.159 53.561 0.00000 -0.00000 0 
14.804 53.561 0.00000 -0.00000 0 
16.449 53.561 0.00000 -0.00000 0 
18.093 53.561 0.00000 -0.00000 0 
19.738 53.561 0.00000 -0.00000 0 
21.383 53.561 0.00000 -0.00000 0 
23.028 53.561 0.00000 -0.00000 0 
24.673 53.561 6.89304 0.16246 2 
26.318 53.561 13.78608 0.32492 2 
27.963 53.561 10.02311 0.22278 2 
29.607 53.561 10.04910 0.08331 2 
31.252 53.561 10.04181 0.30733 2 
32.897 53.561 10.10744 0.04895 2 
34.542 53.561 10.08731 0.00424 2 
36.187 53.561 10.07292 0.06210 2 
37.832 53.561 10.22236 0.15955 2 
39.477 53.561 10.32009 0.08255 2 
41.121 53.561 10.40271 0.02007 2 
42.766 53.561 9.97691 0.16205 2 
44.411 53.561 10.16747 0.17934 2 
46.056 53.561 10.26119 0.02377 2 
47.701 53.561 10.36677 0.10114 2 
49.346 53.561 10.40800 0.09571 2 
50.991 53.561 10.32381 0.02936 2 
52.636 53.561 10.55075 0.09196 2 
54.280 53.561 10.37543 -0.00072 2 
55.925 53.561 10.28195 -0.03178 2 
57.570 53.561 10.18847 -0.06283 2 
59.215 53.561 10.57925 -0.01049 2 
60.860 53.561 10.29766 -0.06804 2 
62.505 53.561 10.31199 0.02042 2 
64.150 53.561 10.46359 -0.21658 2 
65.794 53.561 10.32073 -0.20380 2 
67.439 53.561 10.28241 -0.01192 2 
69.084 53.561 10.15939 -0.09864 2 
70.729 53.561 10.22769 -0.06870 2 
72.374 53.561 10.11584 0.02166 2 
74.019 53.561 10.34876 -0.08863 2 
75.664 53.561 10.41453 -0.02734 2 
77.308 53.561 10.38587 -0.03407 2 
78.953 53.561 10.24305 -0.03013 2 
80.598 53.561 10.10023 -0.02619 2 
82.243 53.561 10.24715 -0.06156 2 
83.888 53.561 10.39407 -0.09694 2 
85.533 53.561 10.35644 0.12716 2 
87.178 53.561 10.17949 0.11897 2 
88.822 53.561 10.00255 0.11078 2 
90.467 53.561 10.06667 0.12898 2 
92.112 53.561 9.69658 0.02597 2 
93.757 53.561 9.71647 -0.08684 2 
95.402 53.561 10.01509 -0.10950 2 
97.047 53.561 9.88931 -0.12398 2 
98.692 53.561 10.10702 0.06276 2 
100.336 53.561 10.13433 0.15732 2 
101.981 53.561 5.06717 0.07866 2 
103.626 53.561 0.00000 -0.00000 0 
105.271 53.561 0.00000 -0.00000 0 
106.916 53.561 0.00000 -0.00000 0 
108.561 53.561 0.00000 -0.00000 0 
110.206 53.561 0.00000 -0.00000 0 
111.850 53.561 5.36576 0.00813 2 
113.495 53.561 10.73152 0.01627 2 
115.140 53.561 10.00642 0.09635 2 
116.785 53.561 9.56919 -0.06164 2 
118.430 53.561 9.86881 0.05659 2 
120.075 53.561 10.02897 0.06593 2 
121.720 53.561 9.92927 -0.17919 2 
123.364 53.561 9.86073 -0.13304 2 
125.009 53.561 9.83628 -0.01543 2 
126.654 53.561 10.12766 -0.16688 2 
128.299 53.561 9.63013 -0.04029 2 
129.944 53.561 9.75524 -0.11367 2 
131.589 53.561 9.91175 -0.10344 2 
133.234 53.561 9.72715 0.00008 2 
134.879 53.561 9.98039 -0.03720 2 
136.523 53.561 9.63925 0.14443 2 
138.168 53.561 9.87317 0.28814 2 
139.813 53.561 10.13133 0.20087 2 
141.458 53.561 9.97726 0.05860 2 
143.103 53.561 10.07809 0.03281 2 
144.748 53.561 10.08197 0.08362 2 
146.393 53.561 9.82506 -0.01371 2 
148.037 53.561 9.61932 0.10140 2 
149.682 53.561 9.96417 0.18490 2 
151.327 53.561 10.44614 0.04558 2 
152.972 53.561 0.00000 -0.00000 0 
-13.159 51.916 0.00000 -0.00000 0 
-11.514 51.916 10.14392 0.08093 2 
-9.869 51.916 10.07417 0.44245 2 
-8.224 51.916 10.04993 0.44356 2 
-6.579 51.916 9.85708 0.30777 2 
-4.935 51.916 9.85079 0.41252 2 
-3.290 51.916 9.79940 0.30398 2 
-1.645 51.916 9.98751 0.27733 2 
0.000 51.916 9.89812 0.37397 2 
1.645 51.916 9.92776 0.40305 2 
3.290 51.916 10.18719 0.45754 2 
4.935 51.916 0.00000 -0.00000 0 
6.579 51.916 0.00000 -0.00000 0 
8.224 51.916 0.00000 -0.00000 0 
9.869 51.916 0.00000 -0.00000 0 
11.514 51.916 0.00000 -0.00000 0 
13.159 51.916 0.00000 -0.00000 0 
14.804 51.916 0.00000 -0.00000 0 
16.449 51.916 0.00000 -0.00000 0 
18.093 51.916 0.00000 -0.00000 0 
19.738 51.916 0.00000 -0.00000 0 
21.383 51.916 0.00000 -0.00000 0 
23.028 51.916 0.00000 -0.00000 0 
24.673 51.916 7.01033 0.05892 2 
26.318 51.916 14.02066 0.11783 2 
27.963 51.916 10.00114 0.35706 2 
29.607 51.916 10.19183 0.11571 2 
31.252 51.916 10.23309 0.23613 2 
32.897 51.916 10.29312 0.36402 2 
34.542 51.916 10.29695 0.22976 2 
36.187 51.916 10.32229 0.24391 2 
37.832 51.916 10.18756 0.39668 2 
39.477 51.916 10.45889 0.27723 2 
41.121 51.916 10.48824 0.14222 2 
42.766 51.916 10.16778 0.36004 2 
44.411 51.916 10.04736 0.26203 2 
46.056 51.916 10.47059 0.07546 2 
47.701 51.916 10.20332 0.15323 2 
49.346 51.916 10.14941 0.14363 2 
50.991 51.916 10.18556 0.02753 2 
52.636 51.916 10.21097 0.13657 2 
54.280 51.916 10.33168 0.31792 2 
55.925 51.916 10.14666 0.11096 2 
57.570 51.916 10.38923 -0.05618 2 
59.215 51.916 10.34754 0.07337 2 
60.860 51.916 10.18192 -0.11482 2 
62.505 51.916 10.42254 -0.15284 2 
64.150 51.916 10.45470 -0.34634 2 
65.794 51.916 10.43000 -0.00459 2 
67.439 51.916 9.97747 0.05008 2 
69.084 51.916 10.18659 -0.05134 2 
70.729 51.916 10.26515 -0.12398 2 
72.374 51.916 10.07126 -0.04028 2 
74.019 51.916 10.11948 0.03572 2 
75.664 51.916 10.45002 0.14401 2 
77.308 51.916 10.48023 0.19810 2 
78.953 51.916 10.22804 0.33437 2 
80.598 51.916 10.40923 0.00801 2 
82.243 51.916 9.89745 -0.07660 2 
83.888 51.916 9.84403 -0.15574 2 
85.533 51.916 10.08284 -0.05689 2 
87.178 51.916 10.12066 0.00138 2 
88.822 51.916 10.13788 -0.05189 2 
90.467 51.916 10.09323 -0.09656 2 
92.112 51.916 9.94561 -0.31917 2 
93.757 51.916 9.93893 -0.06230 2 
95.402 51.916 10.24427 0.05398 2 
97.047 51.916 9.89221 0.11365 2 
98.692 51.916 9.96128 0.03802 2 
100.336 51.916 9.92514 0.13785 2 
101.981 51.916 9.12032 -0.26547 2 
103.626 51.916 0.00000 -0.00000 0 
105.271 51.916 0.00000 -0.00000 0 
106.916 51.916 0.00000 -0.00000 0 
108.561 51.916 0.00000 -0.00000 0 
110.206 51.916 0.00000 -0.00000 0 
111.850 51.916 5.23912 -0.30734 2 
113.495 51.916 10.47824 -0.61467 2 
115.140 51.916 9.85614 -0.16674 2 
116.785 51.916 9.71512 -0.21825 2 
118.430 51.916 10.00479 -0.16378 2 
120.075 51.916 10.10688 0.16182 2 
121.720 51.916 9.87407 -0.32253 2 
123.364 51.916 10.00532 -0.34502 2 
125.009 51.916 9.89236 -0.11540 2 
126.654 51.916 9.93815 -0.11205 2 
128.299 51.916 9.74281 0.02820 2 
129.944 51.916 9.78259 -0.23434 2 
131.589 51.916 10.09646 -0.33676 2 
133.234 51.916 9.92353 -0.27001 2 
134.879 51.916 9.97652 -0.35207 2 
136.523 51.916 9.77526 0.23013 2 
138.168 51.916 9.80861 0.09334 2 
139.813 51.916 10.10804 -0.39422 2 
141.458 51.916 9.97433 0.17600 2 
143.103 51.916 9.80743 0.35661 2 
144.748 51.916 9.87218 0.26668 2 
146.393 51.916 9.66910 -0.19492 2 
148.037 51.916 10.02008 0.25674 2 
149.682 51.916 9.80123 0.17773 2 
151.327 51.916 10.10991 -0.00246 2 
152.972 51.916 0.00000 -0.00000 0 
-13.159 50.271 0.00000 -0.00000 0 
-11.514 50.271 9.99101 0.14521 2 
-9.869 50.271 10.00328 0.36038 2 
-8.224 50.271 9.86564 0.47736 2 
-6.579 50.271 9.78448 0.44959 2 
-4.935 50.271 9.76001 0.25979 2 
-3.290 50.271 9.71154 0.31941 2 
-1.645 50.271 9.88334 0.30768 2 
0.000 50.271 9.99663 0.16025 2 
1.645 50.271 10.03279 0.18549 2 
3.290 50.271 10.38530 0.59519 2 
4.935 50.271 3.25893 0.42450 2 
6.579 50.271 0.00000 -0.00000 0 
8.224 50.271 0.00000 -0.00000 0 
9.869 50.271 0.00000 -0.00000 0 
11.514 50.271 0.00000 -0.00000 0 
13.159 50.271 0.00000 -0.00000 0 
14.804 50.271 0.00000 -0.00000 0 
16.449 50.271 0.00000 -0.00000 0 
18.093 50.271 0.00000 -0.00000 0 
19.738 50.271 0.00000 -0.00000 0 
21.383 50.271 0.00000 -0.00000 0 
23.028 50.271 0.00000 -0.00000 0 
24.673 50.271 0.16227 0.24327 2 
26.318 50.271 12.38110 0.28141 2 
27.963 50.271 10.23604 0.43278 2 
29.607 50.271 10.16814 0.39857 2 
31.252 50.271 10.11223 0.09919 2 
32.897 50.271 10.19738 0.27582 2 
34.542 50.271 10.14858 0.25768 2 
36.187 50.271 10.20032 0.26839 2 
37.832 50.271 10.37667 0.23633 2 
39.477 50.271 10.39372 0.09398 2 
41.121 50.271 10.50872 0.21304 2 
42.766 50.271 10.28540 0.25724 2 
44.411 50.271 9.99008 0.08319 2 
46.056 50.271 10.47841 0.12117 2 
47.701 50.271 10.27666 0.20852 2 
49.346 50.271 10.30494 0.29637 2 
50.991 50.271 10.04299 0.14631 2 
52.636 50.271 10.04406 0.14833 2 
54.280 50.271 10.50785 0.19974 2 
55.925 50.271 10.36380 -0.02512 2 
57.570 50.271 10.40589 -0.29461 2 
59.215 50.271 10.33607 -0.00005 2 
60.860 50.271 10.15684 0.10160 2 
62.505 50.271 10.09498 0.11692 2 
64.150 50.271 10.07642 0.14528 2 
65.794 50.271 10.38225 0.28319 2 
67.439 50.271 10.15865 0.25707 2 
69.084 50.271 10.21380 -0.00404 2 
70.729 50.271 10.30261 -0.17927 2 
72.374 50.271 10.07920 -0.06551 2 
74.019 50.271 10.11192 -0.09753 2 
75.664 50.271 10.17190 -0.19219 2 
77.308 50.271 10.39992 -0.19506 2 
78.953 50.271 10.35162 -0.38853 2 
80.598 50.271 10.22955 -0.26707 2 
82.243 50.271 9.94642 0.05561 2 
83.888 50.271 9.93803 -0.03986 2 
85.533 50.271 10.01805 -0.23710 2 
87.178 50.271 10.23201 -0.35712 2 
88.822 50.271 10.15518 -0.41046 2 
90.467 50.271 9.96060 -0.38300 2 
92.112 50.271 10.00002 -0.20442 2 
93.757 50.271 10.22627 0.11223 2 
95.402 50.271 10.30765 -0.02926 2 
97.047 50.271 10.21754 -0.17766 2 
98.692 50.271 9.90390 -0.36957 2 
100.336 50.271 9.98843 0.02284 2 
101.981 50.271 10.72565 -0.21400 2 
103.626 50.271 0.00000 -0.00000 0 
105.271 50.271 0.00000 -0.00000 0 
106.916 50.271 0.00000 -0.00000 0 
108.561 50.271 0.00000 -0.00000 0 
110.206 50.271 0.00000 -0.00000 0 
111.850 50.271 5.22096 -0.20094 2 
113.495 50.271 10.44192 -0.40188 2 
115.140 50.271 9.81258 -0.37101 2 
116.785 50.271 9.86105 -0.37485 2 
118.430 50.271 10.05390 -0.41223 2 
120.075 50.271 9.84694 -0.08045 2 
121.720 50.271 9.91631 -0.03654 2 
123.364 50.271 9.97536 -0.21901 2 
125.009 50.271 9.87850 -0.01762 2 
126.654 50.271 9.65204 -0.04785 2 
128.299 50.271 9.80754 -0.15352 2 
129.944 50.271 9.88980 -0.44549 2 
131.589 50.271 9.49638 -0.34507 2 
133.234 50.271 9.70869 -0.36361 2 
134.879 50.271 9.90605 -0.36995 2 
136.523 50.271 9.69214 -0.26636 2 
138.168 50.271 9.77708 -0.01971 2 
139.813 50.271 9.75534 -0.24713 2 
141.458 50.271 9.87267 -0.28028 2 
143.103 50.271 9.86174 -0.04057 2 
144.748 50.271 9.71080 0.10689 2 
146.393 50.271 9.88163 -0.30063 2 
148.037 50.271 9.47945 -0.18425 2 
149.682 50.271 9.30476 -0.03933 2 
151.327 50.271 9.62016 -0.37698 2 
152.972 50.271 0.00000 -0.00000 0 
-13.159 48.626 0.00000 -0.00000 0 
-11.514 48.626 9.88273 0.17340 2 
-9.869 48.626 9.76425 0.33505 2 
-8.224 48.626 9.84142 0.51355 2 
-6.579 48.626 9.94091 0.45470 2 
-4.935 48.626 9.97056 0.30731 2 
-3.290 48.626 9.91924 0.27346 2 
-1.645 48.626 9.87023 0.24382 2 
0.000 48.626 9.85994 0.30687 2 
1.645 48.626 9.86312 0.42171 2 
3.290 48.626 10.25913 0.66427 2 
4.935 48.626 6.55128 0.27469 2 
6.579 48.626 0.00000 -0.00000 0 
8.224 48.626 0.00000 -0.00000 0 
9.869 48.626 0.00000 -0.00000 0 
11.514 48.626 0.00000 -0.00000 0 
13.159 48.626 0.00000 -0.00000 0 
14.804 48.626 0.00000 -0.00000 0 
16.449 48.626 0.00000 -0.00000 0 
18.093 48.626 0.00000 -0.00000 0 
19.738 48.626 0.00000 -0.00000 0 
21.383 48.626 0.00000 -0.00000 0 
23.028 48.626 0.00000 -0.00000 0 
24.673 48.626 0.15056 0.05953 2 
26.318 48.626 10.74155 0.44498 2 
27.963 48.626 10.12710 0.30123 2 
29.607 48.626 9.98513 0.37316 2 
31.252 48.626 10.17178 0.10106 2 
32.897 48.626 10.12369 0.09847 2 
34.542 48.626 10.17507 0.19719 2 
36.187 48.626 10.25018 0.29648 2 
37.832 48.626 10.42846 0.12521 2 
39.477 48.626 10.21635 0.04433 2 
41.121 48.626 10.46577 0.17968 2 
42.766 48.626 10.19141 0.19521 2 
44.411 48.626 10.29294 -0.15902 2 
46.056 48.626 10.60029 0.02626 2 
47.701 48.626 10.34999 0.26382 2 
49.346 48.626 10.36667 0.15096 2 
50.991 48.626 10.47339 0.35022 2 
52.636 48.626 10.43776 0.07904 2 
54.280 48.626 10.60892 0.00212 2 
55.925 48.626 10.58575 -0.14472 2 
57.570 48.626 10.39152 -0.04693 2 
59.215 48.626 10.28880 0.14078 2 
60.860 48.626 10.16380 -0.12090 2 
62.505 48.626 10.20045 0.14525 2 
64.150 48.626 10.03393 -0.04036 2 
65.794 48.626 10.23165 0.00468 2 
67.439 48.626 10.36529 -0.05921 2 
69.084 48.626 10.16371 -0.16510 2 
70.729 48.626 9.87517 -0.05479 2 
72.374 48.626 9.98082 -0.20439 2 
74.019 48.626 10.09594 -0.16232 2 
75.664 48.626 10.13755 -0.31378 2 
77.308 48.626 10.52164 -0.42669 2 
78.953 48.626 10.30378 -0.27322 2 
80.598 48.626 10.14427 -0.14977 2 
82.243 48.626 9.99377 0.09946 2 
83.888 48.626 10.22370 -0.22229 2 
85.533 48.626 9.94795 -0.16604 2 
87.178 48.626 10.01363 -0.14089 2 
88.822 48.626 10.02516 -0.28625 2 
90.467 48.626 9.91411 -0.08144 2 
92.112 48.626 10.09311 -0.03995 2 
93.757 48.626 10.24060 0.05522 2 
95.402 48.626 10.18115 -0.13205 2 
97.047 48.626 10.05079 -0.18112 2 
98.692 48.626 9.79005 -0.10181 2 
100.336 48.626 10.21454 -0.13612 2 
101.981 48.626 11.36560 -0.14621 2 
103.626 48.626 5.68280 -0.07310 2 
105.271 48.626 0.00000 -0.00000 0 
106.916 48.626 0.00000 -0.00000 0 
108.561 48.626 0.00000 -0.00000 0 
110.206 48.626 0.00000 -0.00000 0 
111.850 48.626 5.28879 -0.09851 2 
113.495 48.626 10.57757 -0.19702 2 
115.140 48.626 9.78520 -0.46792 2 
116.785 48.626 9.94284 -0.18419 2 
118.430 48.626 9.99040 -0.42454 2 
120.075 48.626 9.88593 -0.19858 2 
121.720 48.626 9.78461 -0.01857 2 
123.364 48.626 9.94540 -0.09299 2 
125.009 48.626 9.79810 -0.05733 2 
126.654 48.626 9.67013 -0.10766 2 
128.299 48.626 9.45627 -0.30661 2 
129.944 48.626 9.69165 -0.19047 2 
131.589 48.626 9.71605 -0.09604 2 
133.234 48.626 10.01192 0.27746 2 
134.879 48.626 10.31001 -0.05109 2 
136.523 48.626 10.14295 -0.11516 2 
138.168 48.626 10.05974 0.07841 2 
139.813 48.626 9.86606 -0.19202 2 
141.458 48.626 9.66492 -0.14633 2 
143.103 48.626 9.46378 -0.10064 2 
144.748 48.626 9.54941 -0.05289 2 
146.393 48.626 10.03748 -0.13166 2 
148.037 48.626 9.79550 -0.19484 2 
149.682 48.626 9.38370 -0.27945 2 
151.327 48.626 10.01396 -0.19195 2 
152.972 48.626 0.00000 -0.00000 0 
-13.159 46.981 0.00000 -0.00000 0 
-11.514 46.981 10.07444 0.12964 2 
-9.869 46.981 9.70105 0.42616 2 
-8.224 46.981 9.88689 0.15406 2 
-6.579 46.981 10.11478 0.20253 2 
-4.935 46.981 9.94747 0.33481 2 
-3.290 46.981 9.90273 0.12284 2 
-1.645 46.981 9.97236 0.41704 2 
0.000 46.981 9.78066 0.17310 2 
1.645 46.981 9.83175 0.20781 2 
3.290 46.981 9.87386 0.42304 2 
4.935 46.981 5.88778 0.30018 2 
6.579 46.981 0.00000 -0.00000 0 
8.224 46.981 0.00000 -0.00000 0 
9.869 46.981 0.00000 -0.00000 0 
11.514 46.981 0.00000 -0.00000 0 
13.159 46.981 0.00000 -0.00000 0 
14.804 46.981 0.00000 -0.00000 0 
16.449 46.981 0.00000 -0.00000 0 
18.093 46.981 0.00000 -0.00000 0 
19.738 46.981 0.00000 -0.00000 0 
21.383 46.981 0.00000 -0.00000 0 
23.028 46.981 0.00000 -0.00000 0 
24.673 46.981 0.13885 -0.12420 2 
26.318 46.981 10.24490 0.26405 2 
27.963 46.981 10.17454 0.25499 2 
29.607 46.981 10.15537 0.38627 2 
31.252 46.981 10.22934 0.32565 2 
32.897 46.981 10.29776 0.30296 2 
34.542 46.981 10.28440 0.35917 2 
36.187 46.981 10.46348 0.29781 2 
37.832 46.981 10.24467 0.34048 2 
39.477 46.981 10.09861 0.45526 2 
41.121 46.981 10.58549 0.52528 2 
42.766 46.981 10.30407 0.25350 2 
44.411 46.981 10.14187 -0.10655 2 
46.056 46.981 10.18133 0.07088 2 
47.701 46.981 10.23905 -0.03038 2 
49.346 46.981 10.42839 0.00555 2 
50.991 46.981 10.45542 0.36459 2 
52.636 46.981 10.42682 -0.00402 2 
54.280 46.981 10.30900 0.13266 2 
55.925 46.981 10.48045 -0.06315 2 
57.570 46.981 10.35562 -0.02313 2 
59.215 46.981 10.45138 0.38080 2 
60.860 46.981 10.12962 0.02189 2 
62.505 46.981 10.50736 0.16004 2 
64.150 46.981 10.02488 0.04073 2 
65.794 46.981 10.11245 -0.10689 2 
67.439 46.981 10.46253 -0.37044 2 
69.084 46.981 10.21144 -0.16261 2 
70.729 46.981 9.85261 -0.00432 2 
72.374 46.981 10.07631 -0.22692 2 
74.019 46.981 9.95682 0.05566 2 
75.664 46.981 10.10548 0.03223 2 
77.308 46.981 10.49540 -0.17210 2 
78.953 46.981 10.45823 -0.26642 2 
80.598 46.981 10.05899 -0.03247 2 
82.243 46.981 9.94651 -0.28037 2 
83.888 46.981 10.25459 -0.26700 2 
85.533 46.981 10.28044 -0.35626 2 
87.178 46.981 10.24892 -0.47185 2 
88.822 46.981 10.12384 -0.47583 2 
90.467 46.981 10.27837 -0.10306 2 
92.112 46.981 10.01865 -0.46760 2 
93.757 46.981 10.05541 -0.29199 2 
95.402 46.981 9.93072 -0.11318 2 
97.047 46.981 10.03669 -0.03040 2 
98.692 46.981 10.20515 -0.09944 2 
100.336 46.981 9.87977 -0.51879 2 
101.981 46.981 10.81438 -0.33423 2 
103.626 46.981 5.40719 -0.16712 2 
105.271 46.981 0.00000 -0.00000 0 
106.916 46.981 0.00000 -0.00000 0 
108.561 46.981 0.00000 -0.00000 0 
110.206 46.981 0.00000 -0.00000 0 
111.850 46.981 5.06523 0.04479 2 
113.495 46.981 10.13046 0.08958 2 
115.140 46.981 10.06016 -0.10736 2 
116.785 46.981 10.06157 -0.35242 2 
118.430 46.981 9.73856 -0.32235 2 
120.075 46.981 9.92491 -0.31671 2 
121.720 46.981 10.19289 -0.03506 2 
123.364 46.981 10.01536 -0.10519 2 
125.009 46.981 9.71770 -0.09704 2 
126.654 46.981 9.71053 0.17256 2 
128.299 46.981 9.67524 -0.15234 2 
129.944 46.981 9.80548 0.00033 2 
131.589 46.981 9.93572 0.15299 2 
133.234 46.981 10.12372 -0.08605 2 
134.879 46.981 10.09112 0.18346 2 
136.523 46.981 10.07238 -0.06386 2 
138.168 46.981 9.88432 -0.11344 2 
139.813 46.981 10.20789 -0.15849 2 
141.458 46.981 9.93583 -0.09976 2 
143.103 46.981 9.66378 -0.04103 2 
144.748 46.981 9.98328 -0.12381 2 
146.393 46.981 9.83667 -0.23725 2 
148.037 46.981 10.14382 -0.13039 2 
149.682 46.981 9.95978 -0.23414 2 
151.327 46.981 9.65521 0.00256 2 
152.972 46.981 0.00000 -0.00000 0 
-13.159 45.336 0.00000 -0.00000 0 
-11.514 45.336 9.95138 0.41837 2 
-9.869 45.336 9.98946 0.51625 2 
-8.224 45.336 9.63168 0.40374 2 
-6.579 45.336 9.81269 0.43107 2 
-4.935 45.336 9.81265 0.26414 2 
-3.290 45.336 9.77155 -0.07323 2 
-1.645 45.336 9.84014 0.56315 2 
0.000 45.336 9.70049 0.60218 2 
1.645 45.336 9.93870 0.22793 2 
3.290 45.336 10.20060 0.18170 2 
4.935 45.336 5.10030 0.09085 2 
6.579 45.336 0.00000 -0.00000 0 
8.224 45.336 0.00000 -0.00000 0 
9.869 45.336 0.00000 -0.00000 0 
11.514 45.336 0.00000 -0.00000 0 
13.159 45.336 0.00000 -0.00000 0 
14.804 45.336 0.00000 -0.00000 0 
16.449 45.336 0.00000 -0.00000 0 
18.093 45.336 0.00000 -0.00000 0 
19.738 45.336 0.00000 -0.00000 0 
21.383 45.336 0.00000 -0.00000 0 
23.028 45.336 0.00000 -0.00000 0 
24.673 45.336 -0.12223 0.47413 2 
26.318 45.336 10.19039 0.37206 2 
27.963 45.336 10.15535 0.34298 2 
29.607 45.336 10.27607 0.21872 2 
31.252 45.336 10.19907 0.58737 2 
32.897 45.336 10.23971 0.28949 2 
34.542 45.336 10.22931 0.28520 2 
36.187 45.336 10.34638 0.08417 2 
37.832 45.336 10.19181 0.29082 2 
39.477 45.336 10.39536 0.57982 2 
41.121 45.336 10.39973 0.54986 2 
42.766 45.336 10.37008 0.24477 2 
44.411 45.336 9.99081 -0.05408 2 
46.056 45.336 10.19643 0.09209 2 
47.701 45.336 10.38290 0.15773 2 
49.346 45.336 10.11284 0.18391 2 
50.991 45.336 10.21757 0.11910 2 
52.636 45.336 10.43904 -0.04896 2 
54.280 45.336 10.14566 0.24140 2 
55.925 45.336 10.32827 0.18378 2 
57.570 45.336 10.24033 0.34243 2 
59.215 45.336 10.60244 0.07917 2 
60.860 45.336 10.25083 0.12282 2 
62.505 45.336 10.59451 0.12673 2 
64.150 45.336 10.14591 0.02916 2 
65.794 45.336 10.16719 -0.16804 2 
67.439 45.336 10.70611 -0.13187 2 
69.084 45.336 10.45295 0.17176 2 
70.729 45.336 10.26991 0.11154 2 
72.374 45.336 10.32454 -0.04235 2 
74.019 45.336 10.23281 -0.04468 2 
75.664 45.336 10.08927 -0.23219 2 
77.308 45.336 10.20801 -0.17946 2 
78.953 45.336 10.42380 -0.37510 2 
80.598 45.336 10.26520 -0.17547 2 
82.243 45.336 9.91115 -0.34845 2 
83.888 45.336 10.02490 -0.04992 2 
85.533 45.336 10.24196 -0.24596 2 
87.178 45.336 10.45458 -0.42161 2 
88.822 45.336 10.32781 -0.60137 2 
90.467 45.336 10.34751 -0.16188 2 
92.112 45.336 10.08601 -0.06926 2 
93.757 45.336 9.99963 -0.54353 2 
95.402 45.336 10.12607 -0.40170 2 
97.047 45.336 10.29609 -0.25366 2 
98.692 45.336 10.47315 0.00496 2 
100.336 45.336 9.68407 -0.29473 2 
101.981 45.336 10.47314 -0.30401 2 
103.626 45.336 5.18904 -0.30458 2 
105.271 45.336 0.00000 -0.00000 0 
106.916 45.336 0.00000 -0.00000 0 
108.561 45.336 0.00000 -0.00000 0 
110.206 45.336 0.00000 -0.00000 0 
111.850 45.336 4.95487 0.00983 2 
113.495 45.336 9.90974 0.01967 2 
115.140 45.336 10.17252 -0.21173 2 
116.785 45.336 10.16429 -0.37356 2 
118.430 45.336 9.81949 -0.16805 2 
120.075 45.336 9.99106 -0.08585 2 
121.720 45.336 9.95009 -0.17050 2 
123.364 45.336 10.08533 -0.11739 2 
125.009 45.336 9.92176 -0.13370 2 
126.654 45.336 9.77008 0.11339 2 
128.299 45.336 9.88833 -0.32054 2 
129.944 45.336 9.84360 -0.16773 2 
131.589 45.336 9.79886 -0.01492 2 
133.234 45.336 9.97896 -0.11153 2 
134.879 45.336 10.00528 -0.03677 2 
136.523 45.336 10.00182 -0.01256 2 
138.168 45.336 9.78048 -0.25950 2 
139.813 45.336 10.00101 0.05826 2 
141.458 45.336 9.89221 0.03348 2 
143.103 45.336 9.88755 -0.04707 2 
144.748 45.336 9.96275 -0.20786 2 
146.393 45.336 9.82496 0.19114 2 
148.037 45.336 9.67166 -0.05034 2 
149.682 45.336 9.95268 -0.09037 2 
151.327 45.336 9.79028 0.13860 2 
152.972 45.336 0.00000 -0.00000 0 
-13.159 43.692 0.00000 -0.00000 0 
-11.514 43.692 9.92980 0.44129 2 
-9.869 43.692 9.86246 0.35228 2 
-8.224 43.692 9.73047 0.50570 2 
-6.579 43.692 9.72180 0.43807 2 
-4.935 43.692 9.95775 0.34146 2 
-3.290 43.692 9.92226 0.18390 2 
-1.645 43.692 9.97130 0.38533 2 
0.000 43.692 9.75265 0.71915 2 
1.645 43.692 10.03477 0.40824 2 
3.290 43.692 10.19946 0.19368 2 
4.935 43.692 5.09973 0.09684 2 
6.579 43.692 0.00000 -0.00000 0 
8.224 43.692 0.00000 -0.00000 0 
9.869 43.692 0.00000 -0.00000 0 
11.514 43.692 0.00000 -0.00000 0 
13.159 43.692 0.00000 -0.00000 0 
14.804 43.692 0.00000 -0.00000 0 
16.449 43.692 0.00000 -0.00000 0 
18.093 43.692 0.00000 -0.00000 0 
19.738 43.692 0.00000 -0.00000 0 
21.383 43.692 0.00000 -0.00000 0 
23.028 43.692 0.00000 -0.00000 0 
24.673 43.692 5.23523 0.33563 2 
26.318 43.692 10.47046 0.67127 2 
27.963 43.692 10.09823 0.28653 2 
29.607 43.692 10.14482 0.39944 2 
31.252 43.692 10.16760 0.52066 2 
32.897 43.692 9.99005 0.36793 2 
34.542 43.692 10.23697 0.36856 2 
36.187 43.692 10.21887 0.20393 2 
37.832 43.692 10.27761 0.36007 2 
39.477 43.692 10.11180 0.47644 2 
41.121 43.692 10.08172 0.47371 2 
42.766 43.692 9.95718 0.15357 2 
44.411 43.692 9.94812 0.18627 2 
46.056 43.692 10.50747 0.30085 2 
47.701 43.692 10.45384 0.31219 2 
49.346 43.692 10.37276 0.34013 2 
50.991 43.692 10.55433 0.18387 2 
52.636 43.692 10.32761 0.03375 2 
54.280 43.692 10.25978 0.06537 2 
55.925 43.692 10.50244 0.02180 2 
57.570 43.692 10.41895 0.14339 2 
59.215 43.692 10.53323 -0.26189 2 
60.860 43.692 10.39237 -0.09644 2 
62.505 43.692 10.61647 0.01535 2 
64.150 43.692 10.43245 -0.06341 2 
65.794 43.692 10.03970 -0.08960 2 
67.439 43.692 10.53858 0.00528 2 
69.084 43.692 10.60626 -0.05698 2 
70.729 43.692 10.54793 -0.31467 2 
72.374 43.692 10.36726 -0.18598 2 
74.019 43.692 10.05775 0.06829 2 
75.664 43.692 9.94404 -0.04889 2 
77.308 43.692 9.80535 -0.14256 2 
78.953 43.692 10.30398 -0.24564 2 
80.598 43.692 10.50945 0.04494 2 
82.243 43.692 10.24410 -0.24632 2 
83.888 43.692 10.00988 -0.04648 2 
85.533 43.692 9.90409 -0.26507 2 
87.178 43.692 10.25461 -0.19216 2 
88.822 43.692 9.92856 -0.33458 2 
90.467 43.692 10.03999 -0.58150 2 
92.112 43.692 10.29851 -0.08204 2 
93.757 43.692 9.95777 -0.31015 2 
95.402 43.692 10.11508 -0.28888 2 
97.047 43.692 10.16331 -0.27017 2 
98.692 43.692 10.09117 -0.03420 2 
100.336 43.692 9.76370 -0.46179 2 
101.981 43.692 10.13189 -0.27380 2 
103.626 43.692 5.06595 -0.13690 2 
105.271 43.692 0.00000 -0.00000 0 
106.916 43.692 0.00000 -0.00000 0 
108.561 43.692 0.00000 -0.00000 0 
110.206 43.692 0.00000 -0.00000 0 
111.850 43.692 5.04965 -0.15181 2 
113.495 43.692 10.09930 -0.30362 2 
115.140 43.692 10.08688 -0.37100 2 
116.785 43.692 10.10493 -0.15905 2 
118.430 43.692 9.99548 -0.36123 2 
120.075 43.692 9.94098 0.10935 2 
121.720 43.692 9.70729 -0.30594 2 
123.364 43.692 9.60532 -0.09258 2 
125.009 43.692 9.72210 0.08257 2 
126.654 43.692 9.49428 -0.12905 2 
128.299 43.692 9.93747 -0.09424 2 
129.944 43.692 10.29474 -0.06875 2 
131.589 43.692 9.88051 0.07787 2 
133.234 43.692 9.84104 -0.23553 2 
134.879 43.692 9.79979 -0.16051 2 
136.523 43.692 9.93725 0.02077 2 
138.168 43.692 9.72739 -0.45166 2 
139.813 43.692 9.91651 -0.19979 2 
141.458 43.692 10.02983 -0.05127 2 
143.103 43.692 9.61682 0.01095 2 
144.748 43.692 9.94223 -0.29191 2 
146.393 43.692 9.70751 -0.04193 2 
148.037 43.692 9.76756 -0.21439 2 
149.682 43.692 10.05544 -0.15838 2 
151.327 43.692 9.88595 0.30662 2 
152.972 43.692 0.00000 -0.00000 0 
-13.159 42.047 0.00000 -0.00000 0 
-11.514 42.047 9.87700 0.27380 2 
-9.869 42.047 9.88322 0.25111 2 
-8.224 42.047 9.69925 0.27527 2 
-6.579 42.047 9.50969 0.15928 2 
-4.935 42.047 9.79272 0.40161 2 
-3.290 42.047 9.97249 0.20314 2 
-1.645 42.047 10.07422 0.24800 2 
0.000 42.047 9.79832 0.46720 2 
1.645 42.047 9.87396 0.42437 2 
3.290 42.047 9.89099 0.45489 2 
4.935 42.047 7.38674 0.32243 2 
6.579 42.047 0.00000 -0.00000 0 
8.224 42.047 0.00000 -0.00000 0 
9.869 42.047 0.00000 -0.00000 0 
11.514 42.047 0.00000 -0.00000 0 
13.159 42.047 0.00000 -0.00000 0 
14.804 42.047 0.00000 -0.00000 0 
16.449 42.047 0.00000 -0.00000 0 
18.093 42.047 0.00000 -0.00000 0 
19.738 42.047 0.00000 -0.00000 0 
21.383 42.047 0.00000 -0.00000 0 
23.028 42.047 0.00000 -0.00000 0 
24.673 42.047 5.24073 0.37000 2 
26.318 42.047 10.41071 0.70964 2 
27.963 42.047 10.26010 0.40737 2 
29.607 42.047 10.21875 0.55459 2 
31.252 42.047 10.22112 0.49396 2 
32.897 42.047 10.09345 0.63226 2 
34.542 42.047 10.33419 0.57109 2 
36.187 42.047 10.32681 0.39750 2 
37.832 42.047 10.31072 0.69826 2 
39.477 42.047 10.20760 0.35835 2 
41.121 42.047 10.29358 0.21432 2 
42.766 42.047 10.14034 0.26054 2 
44.411 42.047 10.13116 0.35719 2 
46.056 42.047 10.49220 0.13733 2 
47.701 42.047 10.54560 0.17201 2 
49.346 42.047 10.36261 0.14470 2 
50.991 42.047 10.48837 0.15320 2 
52.636 42.047 10.09028 0.27791 2 
54.280 42.047 9.99449 0.12723 2 
55.925 42.047 10.40795 0.15129 2 
57.570 42.047 10.26253 -0.07657 2 
59.215 42.047 10.17306 0.14769 2 
60.860 42.047 10.46182 0.17315 2 
62.505 42.047 10.68653 -0.08393 2 
64.150 42.047 10.46857 0.00478 2 
65.794 42.047 10.07396 0.11585 2 
67.439 42.047 10.30551 0.22007 2 
69.084 42.047 10.45405 -0.15975 2 
70.729 42.047 10.54542 -0.36801 2 
72.374 42.047 10.40997 -0.32962 2 
74.019 42.047 10.04028 -0.08094 2 
75.664 42.047 10.17379 -0.15343 2 
77.308 42.047 10.01003 -0.04610 2 
78.953 42.047 10.17784 -0.13913 2 
80.598 42.047 10.43147 -0.18793 2 
82.243 42.047 10.34442 0.05759 2 
83.888 42.047 9.99485 -0.04305 2 
85.533 42.047 10.16568 -0.21719 2 
87.178 42.047 10.24190 -0.24295 2 
88.822 42.047 10.27218 -0.36575 2 
90.467 42.047 10.23764 -0.44591 2 
92.112 42.047 9.85909 -0.30597 2 
93.757 42.047 9.96736 -0.40183 2 
95.402 42.047 9.86004 -0.31995 2 
97.047 42.047 9.91467 -0.44557 2 
98.692 42.047 9.77256 -0.48156 2 
100.336 42.047 9.84333 -0.62886 2 
101.981 42.047 10.23853 -0.67163 2 
103.626 42.047 5.11926 -0.33581 2 
105.271 42.047 0.00000 -0.00000 0 
106.916 42.047 0.00000 -0.00000 0 
108.561 42.047 0.00000 -0.00000 0 
110.206 42.047 0.00000 -0.00000 0 
111.850 42.047 4.93729 -0.06707 2 
113.495 42.047 9.87457 -0.13413 2 
115.140 42.047 9.70255 0.04164 2 
116.785 42.047 9.88796 -0.38917 2 
118.430 42.047 9.90549 -0.49413 2 
120.075 42.047 9.89976 -0.11697 2 
121.720 42.047 9.78419 -0.47550 2 
123.364 42.047 9.51180 -0.33710 2 
125.009 42.047 9.99520 -0.14812 2 
126.654 42.047 9.70143 -0.22351 2 
128.299 42.047 10.15901 -0.15190 2 
129.944 42.047 10.10174 -0.19119 2 
131.589 42.047 9.96215 0.17066 2 
133.234 42.047 9.70331 -0.39807 2 
134.879 42.047 9.45311 -0.25447 2 
136.523 42.047 9.56539 0.09177 2 
138.168 42.047 9.62289 -0.23913 2 
139.813 42.047 9.68824 -0.32453 2 
141.458 42.047 9.86319 -0.17702 2 
143.103 42.047 9.88550 -0.41472 2 
144.748 42.047 10.14129 -0.26440 2 
146.393 42.047 9.97942 -0.04260 2 
148.037 42.047 9.81535 -0.07964 2 
149.682 42.047 9.64908 -0.08855 2 
151.327 42.047 10.05249 -0.01945 2 
152.972 42.047 0.00000 -0.00000 0 
-13.159 40.402 0.00000 -0.00000 0 
-11.514 40.402 9.95130 0.32683 2 
-9.869 40.402 9.86556 0.26837 2 
-8.224 40.402 9.68060 0.25490 2 
-6.579 40.402 9.63259 0.21651 2 
-4.935 40.402 9.69478 0.39431 2 
-3.290 40.402 9.80864 0.28329 2 
-1.645 40.402 9.81051 0.27729 2 
0.000 40.402 9.85823 0.50180 2 
1.645 40.402 10.01181 0.41860 2 
3.290 40.402 9.67330 0.36722 2 
4.935 40.402 9.67375 0.54802 2 
6.579 40.402 0.00000 -0.00000 0 
8.224 40.402 0.00000 -0.00000 0 
9.869 40.402 0.00000 -0.00000 0 
11.514 40.402 0.00000 -0.00000 0 
13.159 40.402 0.00000 -0.00000 0 
14.804 40.402 0.00000 -0.00000 0 
16.449 40.402 0.00000 -0.00000 0 
18.093 40.402 0.00000 -0.00000 0 
19.738 40.402 0.00000 -0.00000 0 
21.383 40.402 0.00000 -0.00000 0 
23.028 40.402 0.00000 -0.00000 0 
24.673 40.402 5.17548 0.37400 2 
26.318 40.402 10.35097 0.74801 2 
27.963 40.402 10.05536 0.35644 2 
29.607 40.402 10.32485 0.43021 2 
31.252 40.402 10.41961 0.46303 2 
32.897 40.402 10.37536 0.35781 2 
34.542 40.402 10.41811 0.52141 2 
36.187 40.402 10.38721 0.60231 2 
37.832 40.402 10.48295 0.61935 2 
39.477 40.402 10.64118 0.35751 2 
41.121 40.402 10.30275 0.22209 2 
42.766 40.402 10.21198 0.25890 2 
44.411 40.402 10.22993 0.57669 2 
46.056 40.402 10.45156 0.15986 2 
47.701 40.402 10.59104 0.10337 2 
49.346 40.402 10.33518 0.12858 2 
50.991 40.402 10.38293 0.21856 2 
52.636 40.402 10.25643 0.30363 2 
54.280 40.402 10.16144 0.28835 2 
55.925 40.402 10.54424 0.42072 2 
57.570 40.402 10.39267 0.04389 2 
59.215 40.402 10.27543 0.26621 2 
60.860 40.402 10.55367 0.34006 2 
62.505 40.402 10.50221 0.22797 2 
64.150 40.402 10.39798 0.25383 2 
65.794 40.402 10.47786 0.08792 2 
67.439 40.402 10.34652 0.02705 2 
69.084 40.402 10.24112 -0.26562 2 
70.729 40.402 10.19556 -0.39276 2 
72.374 40.402 10.27335 -0.35249 2 
74.019 40.402 10.22793 -0.20027 2 
75.664 40.402 10.52153 -0.00696 2 