TITLE = "B00002"
VARIABLES = "X [mm]", "Y [mm]", "Vx [m/s]", "Vy [m/s]", "Flag"
ZONE T="Frame 1", I=102, J=77, F=POINT
-13.159 53.561 7.96388 -1.23763 2 
-11.514 53.561 12.63646 -1.03134 2 
-9.869 53.561 7.83967 -1.74011 2 
-8.224 53.561 7.55626 0.27890 2 
-6.579 53.561 9.64870 0.21274 2 
-4.935 53.561 11.58653 0.14824 2 
-3.290 53.561 11.56752 0.21929 2 
-1.645 53.561 12.07063 -0.82844 2 
0.000 53.561 12.42796 -0.27431 2 
1.645 53.561 13.01014 -0.47639 2 
3.290 53.561 0.00000 -0.00000 0 
4.935 53.561 0.00000 -0.00000 0 
6.579 53.561 0.00000 -0.00000 0 
8.224 53.561 0.00000 -0.00000 0 
9.869 53.561 0.00000 -0.00000 0 
11.514 53.561 0.00000 -0.00000 0 
13.159 53.561 0.00000 -0.00000 0 
14.804 53.561 0.00000 -0.00000 0 
16.449 53.561 0.00000 -0.00000 0 
18.093 53.561 0.00000 -0.00000 0 
19.738 53.561 0.00000 -0.00000 0 
21.383 53.561 0.00000 -0.00000 0 
23.028 53.561 5.32458 0.78815 2 
24.673 53.561 13.19151 1.75835 2 
26.318 53.561 8.41123 0.79880 2 
27.963 53.561 10.21761 0.84272 2 
29.607 53.561 9.67485 -0.39798 2 
31.252 53.561 12.45608 0.20800 2 
32.897 53.561 14.12784 -0.11008 2 
34.542 53.561 9.16723 0.93127 2 
36.187 53.561 9.45892 -0.06214 2 
37.832 53.561 12.36079 -0.62955 2 
39.477 53.561 9.35971 -1.72150 2 
41.121 53.561 10.14973 -1.53764 2 
42.766 53.561 10.40055 -0.39773 2 
44.411 53.561 9.29262 -1.00968 2 
46.056 53.561 12.99364 0.55179 2 
47.701 53.561 14.41285 -0.06680 2 
49.346 53.561 12.14787 0.46159 2 
50.991 53.561 11.30551 -0.01455 2 
52.636 53.561 8.44041 -1.07095 2 
54.280 53.561 10.74699 0.70329 2 
55.925 53.561 10.44256 -0.57956 2 
57.570 53.561 10.00852 -1.62114 2 
59.215 53.561 8.86203 -1.11690 2 
60.860 53.561 12.16030 -2.68164 2 
62.505 53.561 9.32220 -2.72794 2 
64.150 53.561 15.25953 -1.90214 2 
65.794 53.561 15.89461 -0.45376 2 
67.439 53.561 7.86644 -1.13825 2 
69.084 53.561 9.62319 -2.11646 2 
70.729 53.561 13.50333 1.84969 2 
72.374 53.561 13.52970 2.77052 2 
74.019 53.561 10.53362 3.73716 2 
75.664 53.561 10.56752 2.51414 2 
77.308 53.561 10.22166 -0.51219 2 
78.953 53.561 8.59284 -0.10600 2 
80.598 53.561 11.76764 0.35780 2 
82.243 53.561 10.12902 -2.62193 2 
83.888 53.561 8.56461 2.50748 2 
85.533 53.561 12.27988 4.11084 2 
87.178 53.561 9.08394 3.31820 2 
88.822 53.561 8.77565 2.88086 2 
90.467 53.561 9.04320 0.08428 2 
92.112 53.561 9.83382 -0.55934 2 
93.757 53.561 10.62443 -1.20295 2 
95.402 53.561 8.97588 -0.89122 2 
97.047 53.561 14.50378 -1.94858 2 
98.692 53.561 9.62676 3.13769 2 
100.336 53.561 19.56702 -4.86309 2 
101.981 53.561 0.00000 -0.00000 0 
103.626 53.561 0.00000 -0.00000 0 
105.271 53.561 0.00000 -0.00000 0 
106.916 53.561 10.21969 -3.16979 2 
108.561 53.561 11.83522 -3.85794 2 
110.206 53.561 8.28982 -3.53593 2 
111.850 53.561 9.70721 -1.48264 2 
113.495 53.561 12.11078 0.98116 2 
115.140 53.561 9.83596 2.86578 2 
116.785 53.561 13.85773 2.20182 2 
118.430 53.561 14.19200 1.65149 2 
120.075 53.561 11.35883 3.72541 2 
121.720 53.561 16.03545 2.36657 2 
123.364 53.561 16.36667 0.78022 2 
125.009 53.561 12.98661 -2.99320 2 
126.654 53.561 10.46834 -3.05711 2 
128.299 53.561 11.92308 -1.57734 2 
129.944 53.561 12.32032 -1.99955 2 
131.589 53.561 11.09037 -1.78904 2 
133.234 53.561 10.62308 -0.41581 2 
134.879 53.561 9.40474 -2.02939 2 
136.523 53.561 16.75642 -1.09039 2 
138.168 53.561 10.05409 -2.78066 2 
139.813 53.561 9.63984 -3.02477 2 
141.458 53.561 13.78100 -1.99054 2 
143.103 53.561 9.62194 0.49082 2 
144.748 53.561 10.15285 1.85680 2 
146.393 53.561 10.68375 3.22278 2 
148.037 53.561 12.72569 1.47181 2 
149.682 53.561 9.63775 -0.22883 2 
151.327 53.561 13.63233 -1.06881 2 
152.972 53.561 2.73380 -0.85913 2 
-13.159 51.916 9.60330 0.70978 2 
-11.514 51.916 13.22425 1.93074 2 
-9.869 51.916 11.67611 2.03542 2 
-8.224 51.916 10.74964 1.70214 2 
-6.579 51.916 9.31961 2.35700 2 
-4.935 51.916 12.05183 3.91825 2 
-3.290 51.916 12.60697 0.19610 2 
-1.645 51.916 11.29964 -0.52306 2 
0.000 51.916 9.35406 -1.39351 2 
1.645 51.916 14.61816 0.58892 2 
3.290 51.916 0.00000 -0.00000 0 
4.935 51.916 0.00000 -0.00000 0 
6.579 51.916 0.00000 -0.00000 0 
8.224 51.916 0.00000 -0.00000 0 
9.869 51.916 0.00000 -0.00000 0 
11.514 51.916 0.00000 -0.00000 0 
13.159 51.916 0.00000 -0.00000 0 
14.804 51.916 0.00000 -0.00000 0 
16.449 51.916 0.00000 -0.00000 0 
18.093 51.916 0.00000 -0.00000 0 
19.738 51.916 0.00000 -0.00000 0 
21.383 51.916 0.00000 -0.00000 0 
23.028 51.916 8.27771 -1.04907 2 
24.673 51.916 11.93963 -0.06927 2 
26.318 51.916 6.78810 0.70284 2 
27.963 51.916 11.85814 -1.79347 2 
29.607 51.916 10.09060 -1.98479 2 
31.252 51.916 9.59817 1.22484 2 
32.897 51.916 10.86829 2.98993 2 
34.542 51.916 9.74886 2.92891 2 
36.187 51.916 9.95284 1.90737 2 
37.832 51.916 13.71826 4.02377 2 
39.477 51.916 11.66256 0.87343 2 
41.121 51.916 10.09681 -0.49943 2 
42.766 51.916 9.63289 2.52920 2 
44.411 51.916 8.99670 2.30125 2 
46.056 51.916 12.80631 1.88634 2 
47.701 51.916 11.33653 1.39988 2 
49.346 51.916 11.15686 2.75668 2 
50.991 51.916 11.59585 -0.37504 2 
52.636 51.916 9.21861 -1.61446 2 
54.280 51.916 10.27432 3.52803 2 
55.925 51.916 11.78521 2.91751 2 
57.570 51.916 12.78877 1.01662 2 
59.215 51.916 11.45509 2.47643 2 
60.860 51.916 14.05812 1.34059 2 
62.505 51.916 10.35708 -2.26498 2 
64.150 51.916 13.91389 -1.22958 2 
65.794 51.916 13.33361 0.91372 2 
67.439 51.916 9.75545 -1.29369 2 
69.084 51.916 11.66266 1.12044 2 
70.729 51.916 14.25460 0.99712 2 
72.374 51.916 14.72501 -0.25713 2 
74.019 51.916 13.68088 3.35023 2 
75.664 51.916 13.33429 2.88239 2 
77.308 51.916 12.86136 -0.40320 2 
78.953 51.916 14.62353 0.62837 2 
80.598 51.916 14.83471 2.20188 2 
82.243 51.916 11.64866 3.22516 2 
83.888 51.916 11.21566 0.37877 2 
85.533 51.916 12.50787 -0.25082 2 
87.178 51.916 8.97019 0.23128 2 
88.822 51.916 13.50139 1.95582 2 
90.467 51.916 15.16274 2.63663 2 
92.112 51.916 15.97326 -2.06584 2 
93.757 51.916 13.45529 0.70796 2 
95.402 51.916 11.29947 4.63868 2 
97.047 51.916 14.10927 2.58518 2 
98.692 51.916 13.19720 2.42781 2 
100.336 51.916 21.33427 -2.15722 2 
101.981 51.916 0.00000 -0.00000 0 
103.626 51.916 0.00000 -0.00000 0 
105.271 51.916 0.00000 -0.00000 0 
106.916 51.916 11.82729 -1.96630 2 
108.561 51.916 15.24562 -3.86019 2 
110.206 51.916 13.69446 1.12047 2 
111.850 51.916 10.51911 2.58648 2 
113.495 51.916 14.93723 -2.16337 2 
115.140 51.916 11.79451 -1.74599 2 
116.785 51.916 9.49909 0.61349 2 
118.430 51.916 12.39394 -1.42236 2 
120.075 51.916 12.78015 -0.01150 2 
121.720 51.916 16.90236 1.83406 2 
123.364 51.916 15.41545 -1.76654 2 
125.009 51.916 10.42688 -2.61506 2 
126.654 51.916 10.69075 -1.65048 2 
128.299 51.916 11.47247 1.59673 2 
129.944 51.916 8.46475 -3.40662 2 
131.589 51.916 11.26268 -4.94836 2 
133.234 51.916 10.62707 -0.01749 2 
134.879 51.916 7.57160 -3.44539 2 
136.523 51.916 15.06083 -2.07940 2 
138.168 51.916 14.95411 -2.63708 2 
139.813 51.916 12.06787 -1.91975 2 
141.458 51.916 13.54231 -4.01336 2 
143.103 51.916 11.76630 -2.74400 2 
144.748 51.916 11.82109 0.38638 2 
146.393 51.916 10.94336 1.12674 2 
148.037 51.916 9.35884 2.18283 2 
149.682 51.916 8.97948 0.49769 2 
151.327 51.916 14.41613 0.50349 2 
152.972 51.916 2.46520 1.77521 2 
-13.159 50.271 8.53536 2.60593 2 
-11.514 50.271 11.95641 2.54650 2 
-9.869 50.271 11.10841 1.04793 2 
-8.224 50.271 12.73553 1.55706 2 
-6.579 50.271 12.34544 1.91864 2 
-4.935 50.271 9.06080 1.80965 2 
-3.290 50.271 10.60532 -0.83850 2 
-1.645 50.271 9.92615 -1.59250 2 
0.000 50.271 8.16390 -0.80867 2 
1.645 50.271 15.59480 1.90242 2 
3.290 50.271 0.00000 -0.00000 0 
4.935 50.271 0.00000 -0.00000 0 
6.579 50.271 0.00000 -0.00000 0 
8.224 50.271 0.00000 -0.00000 0 
9.869 50.271 0.00000 -0.00000 0 
11.514 50.271 0.00000 -0.00000 0 
13.159 50.271 0.00000 -0.00000 0 
14.804 50.271 0.00000 -0.00000 0 
16.449 50.271 0.00000 -0.00000 0 
18.093 50.271 0.00000 -0.00000 0 
19.738 50.271 0.00000 -0.00000 0 
21.383 50.271 0.00000 -0.00000 0 
23.028 50.271 10.39456 -3.16328 2 
24.673 50.271 10.99955 -2.54588 2 
26.318 50.271 10.32474 3.95758 2 
27.963 50.271 13.73551 -0.10712 2 
29.607 50.271 11.14925 -0.03490 2 
31.252 50.271 9.56497 1.01045 2 
32.897 50.271 10.80052 4.61084 2 
34.542 50.271 10.55016 0.98482 2 
36.187 50.271 11.11789 2.74903 2 
37.832 50.271 12.83382 3.10703 2 
39.477 50.271 13.53598 1.04846 2 
41.121 50.271 10.72664 -2.78980 2 
42.766 50.271 9.14272 -1.87826 2 
44.411 50.271 12.83126 3.61211 2 
46.056 50.271 15.93511 3.50989 2 
47.701 50.271 10.34080 1.41066 2 
49.346 50.271 10.06349 3.00014 2 
50.991 50.271 11.93272 2.87887 2 
52.636 50.271 11.65027 -0.40393 2 
54.280 50.271 11.72646 -1.31451 2 
55.925 50.271 14.06098 1.92336 2 
57.570 50.271 15.70829 3.43907 2 
59.215 50.271 14.32932 3.60621 2 
60.860 50.271 7.99142 2.06761 2 
62.505 50.271 7.77202 -1.73887 2 
64.150 50.271 13.38593 -3.73248 2 
65.794 50.271 11.28524 -3.10578 2 
67.439 50.271 10.12021 1.04444 2 
69.084 50.271 11.40167 2.19604 2 
70.729 50.271 13.44896 0.16968 2 
72.374 50.271 10.87298 -0.07910 2 
74.019 50.271 13.46574 2.85215 2 
75.664 50.271 10.20197 2.30121 2 
77.308 50.271 8.59931 2.81932 2 
78.953 50.271 13.42933 2.45635 2 
80.598 50.271 13.97647 2.49243 2 
82.243 50.271 10.44161 3.52879 2 
83.888 50.271 13.82412 0.34666 2 
85.533 50.271 15.44283 -0.06282 2 
87.178 50.271 12.14973 2.22406 2 
88.822 50.271 12.67574 6.59982 2 
90.467 50.271 12.51558 5.79310 2 
92.112 50.271 10.62381 -0.95240 2 
93.757 50.271 8.82406 2.22183 2 
95.402 50.271 10.56398 2.72653 2 
97.047 50.271 14.10158 1.96120 2 
98.692 50.271 10.08791 2.68218 2 
100.336 50.271 19.07720 -3.84380 2 
101.981 50.271 0.00000 -0.00000 0 
103.626 50.271 0.00000 -0.00000 0 
105.271 50.271 0.00000 -0.00000 0 
106.916 50.271 8.94892 -0.46134 2 
108.561 50.271 12.73677 1.88638 2 
110.206 50.271 13.78835 1.53180 2 
111.850 50.271 9.28206 0.43778 2 
113.495 50.271 12.93255 -0.39953 2 
115.140 50.271 15.97273 -1.79364 2 
116.785 50.271 11.16780 -0.01938 2 
118.430 50.271 10.16353 -1.30885 2 
120.075 50.271 13.43057 -0.00437 2 
121.720 50.271 12.03020 2.41443 2 
123.364 50.271 11.94062 2.18029 2 
125.009 50.271 10.63111 -1.53517 2 
126.654 50.271 15.82272 0.73244 2 
128.299 50.271 11.77338 2.22719 2 
129.944 50.271 9.86477 -3.28397 2 
131.589 50.271 12.19001 -5.15447 2 
133.234 50.271 14.96104 -1.36724 2 
134.879 50.271 9.81002 -0.56417 2 
136.523 50.271 11.20837 -0.80952 2 
138.168 50.271 18.20164 -1.23903 2 
139.813 50.271 15.71449 0.99362 2 
141.458 50.271 14.17624 0.28794 2 
143.103 50.271 8.92402 -2.81584 2 
144.748 50.271 11.10540 -0.55890 2 
146.393 50.271 10.08013 -0.67442 2 
148.037 50.271 7.31884 0.39938 2 
149.682 50.271 9.63557 -2.14453 2 
151.327 50.271 16.48540 -0.44828 2 
152.972 50.271 1.55101 1.03970 2 
-13.159 48.626 7.81282 0.65617 2 
-11.514 48.626 11.88153 -0.69176 2 
-9.869 48.626 8.85685 0.58495 2 
-8.224 48.626 8.69279 2.42411 2 
-6.579 48.626 10.11128 -3.06778 2 
-4.935 48.626 8.89009 0.06695 2 
-3.290 48.626 9.90325 1.23768 2 
-1.645 48.626 10.02361 -0.19791 2 
0.000 48.626 9.42007 0.57630 2 
1.645 48.626 16.57144 3.21592 2 
3.290 48.626 0.00000 -0.00000 0 
4.935 48.626 0.00000 -0.00000 0 
6.579 48.626 0.00000 -0.00000 0 
8.224 48.626 0.00000 -0.00000 0 
9.869 48.626 0.00000 -0.00000 0 
11.514 48.626 0.00000 -0.00000 0 
13.159 48.626 0.00000 -0.00000 0 
14.804 48.626 0.00000 -0.00000 0 
16.449 48.626 0.00000 -0.00000 0 
18.093 48.626 0.00000 -0.00000 0 
19.738 48.626 0.00000 -0.00000 0 
21.383 48.626 0.00000 -0.00000 0 
23.028 48.626 9.26257 1.49184 2 
24.673 48.626 10.92033 2.38452 2 
26.318 48.626 13.12154 1.60639 2 
27.963 48.626 10.61352 1.52216 2 
29.607 48.626 8.25393 0.20624 2 
31.252 48.626 10.61283 0.24532 2 
32.897 48.626 12.31202 1.24651 2 
34.542 48.626 10.39028 -0.22427 2 
36.187 48.626 11.61456 1.31469 2 
37.832 48.626 9.59858 0.00629 2 
39.477 48.626 10.37244 -1.16617 2 
41.121 48.626 10.22137 2.11675 2 
42.766 48.626 8.53772 2.61123 2 
44.411 48.626 13.35008 0.25290 2 
46.056 48.626 14.02140 -0.82353 2 
47.701 48.626 11.42636 1.20095 2 
49.346 48.626 10.42670 2.47545 2 
50.991 48.626 12.95450 4.35090 2 
52.636 48.626 12.48861 2.76063 2 
54.280 48.626 13.96655 -3.23299 2 
55.925 48.626 13.16096 -1.15720 2 
57.570 48.626 10.51929 2.08471 2 
59.215 48.626 12.34014 -1.55893 2 
60.860 48.626 10.54805 2.11207 2 
62.505 48.626 10.97661 4.37988 2 
64.150 48.626 13.54326 0.73183 2 
65.794 48.626 12.17088 3.04799 2 
67.439 48.626 9.27027 5.95508 2 
69.084 48.626 8.91605 1.79346 2 
70.729 48.626 9.93631 -2.58098 2 
72.374 48.626 11.12283 -1.77857 2 
74.019 48.626 11.78992 1.46519 2 
75.664 48.626 8.87095 2.38003 2 
77.308 48.626 8.85927 1.76318 2 
78.953 48.626 12.23514 4.28434 2 
80.598 48.626 8.43148 2.82664 2 
82.243 48.626 9.40342 2.80114 2 
83.888 48.626 15.84287 4.23948 2 
85.533 48.626 13.54392 5.41907 2 
87.178 48.626 12.45644 1.33186 2 
88.822 48.626 13.43028 6.21380 2 
90.467 48.626 6.82473 1.59954 2 
92.112 48.626 10.24796 -3.38646 2 
93.757 48.626 10.63637 0.51886 2 
95.402 48.626 9.27174 2.15554 2 
97.047 48.626 14.87519 2.10921 2 
98.692 48.626 15.09924 5.44151 2 
100.336 48.626 18.46762 -2.98508 2 
101.981 48.626 0.00000 -0.00000 0 
103.626 48.626 0.00000 -0.00000 0 
105.271 48.626 0.00000 -0.00000 0 
106.916 48.626 7.43075 4.37973 2 
108.561 48.626 12.20276 1.57413 2 
110.206 48.626 11.81385 -2.93594 2 
111.850 48.626 8.79183 -1.87161 2 
113.495 48.626 10.02222 1.56162 2 
115.140 48.626 13.08678 0.59940 2 
116.785 48.626 12.83651 -0.65225 2 
118.430 48.626 13.66850 -3.05283 2 
120.075 48.626 13.36781 -1.49403 2 
121.720 48.626 10.98732 -0.78154 2 
123.364 48.626 13.87379 2.00580 2 
125.009 48.626 10.99418 -1.08565 2 
126.654 48.626 10.74896 -1.90014 2 
128.299 48.626 12.07430 2.85766 2 
129.944 48.626 7.63674 0.04293 2 
131.589 48.626 11.25607 -2.57304 2 
133.234 48.626 12.32651 -1.96082 2 
134.879 48.626 7.82821 -0.03786 2 
136.523 48.626 9.06232 -2.86529 2 
138.168 48.626 13.68604 -2.78302 2 
139.813 48.626 15.85738 1.04900 2 
141.458 48.626 13.51202 -1.02691 2 
143.103 48.626 8.87329 -3.69989 2 
144.748 48.626 10.31698 -0.69236 2 
146.393 48.626 8.63024 -4.76260 2 
148.037 48.626 9.94108 -5.07707 2 
149.682 48.626 12.21636 -0.60259 2 
151.327 48.626 13.03858 -1.73637 2 
152.972 48.626 1.40692 -2.64925 2 
-13.159 46.981 4.45398 -0.68052 2 
-11.514 46.981 9.62264 -0.81607 2 
-9.869 46.981 9.33279 2.14716 2 
-8.224 46.981 8.70832 0.15965 2 
-6.579 46.981 9.08816 -0.36200 2 
-4.935 46.981 12.07275 2.18123 2 
-3.290 46.981 12.15462 1.64451 2 
-1.645 46.981 9.92468 -1.75962 2 
0.000 46.981 9.15164 -1.20739 2 
1.645 46.981 14.68281 1.35318 2 
3.290 46.981 0.00000 -0.00000 0 
4.935 46.981 0.00000 -0.00000 0 
6.579 46.981 0.00000 -0.00000 0 
8.224 46.981 0.00000 -0.00000 0 
9.869 46.981 0.00000 -0.00000 0 
11.514 46.981 0.00000 -0.00000 0 
13.159 46.981 0.00000 -0.00000 0 
14.804 46.981 0.00000 -0.00000 0 
16.449 46.981 0.00000 -0.00000 0 
18.093 46.981 0.00000 -0.00000 0 
19.738 46.981 0.00000 -0.00000 0 
21.383 46.981 0.00000 -0.00000 0 
23.028 46.981 6.45655 1.77713 2 
24.673 46.981 11.31664 3.57409 2 
26.318 46.981 12.68789 -0.58481 2 
27.963 46.981 7.49129 -0.00215 2 
29.607 46.981 7.85619 -0.20538 2 
31.252 46.981 9.21084 0.00091 2 
32.897 46.981 11.14507 5.22152 2 
34.542 46.981 11.79414 4.23771 2 
36.187 46.981 13.26168 0.86830 2 
37.832 46.981 8.66967 0.74459 2 
39.477 46.981 8.48225 2.17310 2 
41.121 46.981 9.38906 3.99466 2 
42.766 46.981 9.75581 2.16740 2 
44.411 46.981 11.39538 -0.26006 2 
46.056 46.981 9.70014 2.36488 2 
47.701 46.981 10.86993 4.37478 2 
49.346 46.981 14.02653 1.55843 2 
50.991 46.981 10.42696 -1.16710 2 
52.636 46.981 10.12632 3.11688 2 
54.280 46.981 13.66874 4.25867 2 
55.925 46.981 8.65139 -0.59957 2 
57.570 46.981 6.22817 -0.52749 2 
59.215 46.981 10.81321 -0.77390 2 
60.860 46.981 13.10469 2.15654 2 
62.505 46.981 12.23309 3.92807 2 
64.150 46.981 13.70058 5.19614 2 
65.794 46.981 11.24872 8.59509 2 
67.439 46.981 10.88324 3.48585 2 
69.084 46.981 10.86899 1.93723 2 
70.729 46.981 10.87916 -0.88728 2 
72.374 46.981 11.34026 -1.17580 2 
74.019 46.981 11.28382 -0.56791 2 
75.664 46.981 13.60288 2.23251 2 
77.308 46.981 15.34375 -1.35933 2 
78.953 46.981 11.88729 0.28528 2 
80.598 46.981 11.99576 5.51528 2 
82.243 46.981 14.40479 3.23826 2 
83.888 46.981 9.41874 -0.57242 2 
85.533 46.981 7.94022 -1.82604 2 
87.178 46.981 12.76315 0.43966 2 
88.822 46.981 14.18482 5.82778 2 
90.467 46.981 8.06086 1.40502 2 
92.112 46.981 9.59411 -4.33098 2 
93.757 46.981 15.42020 -3.73643 2 
95.402 46.981 14.02378 -0.12738 2 
97.047 46.981 8.08469 -1.32657 2 
98.692 46.981 16.77054 2.72370 2 
100.336 46.981 13.50662 4.36685 2 
101.981 46.981 0.00000 -0.00000 0 
103.626 46.981 0.00000 -0.00000 0 
105.271 46.981 0.00000 -0.00000 0 
106.916 46.981 12.39700 3.74937 2 
108.561 46.981 15.01670 1.38007 2 
110.206 46.981 13.19830 0.74629 2 
111.850 46.981 9.33661 1.41766 2 
113.495 46.981 10.61762 1.47638 2 
115.140 46.981 10.06365 0.74070 2 
116.785 46.981 12.72927 1.19887 2 
118.430 46.981 16.26097 0.63328 2 
120.075 46.981 12.36707 -3.25529 2 
121.720 46.981 11.63558 -5.52524 2 
123.364 46.981 14.09535 -1.06765 2 
125.009 46.981 10.87607 -0.16524 2 
126.654 46.981 10.13005 -2.12422 2 
128.299 46.981 12.43268 -2.09800 2 
129.944 46.981 9.99120 -2.01408 2 
131.589 46.981 12.50755 -1.03784 2 
133.234 46.981 10.37324 0.06125 2 
134.879 46.981 7.75868 0.91581 2 
136.523 46.981 11.37293 -2.91439 2 
138.168 46.981 10.18151 -4.78710 2 
139.813 46.981 9.29603 -1.09892 2 
141.458 46.981 10.06072 -1.58120 2 
143.103 46.981 9.64553 0.79524 2 
144.748 46.981 8.84912 0.48571 2 
146.393 46.981 8.61517 -2.94826 2 
148.037 46.981 11.21715 -2.75714 2 
149.682 46.981 10.23056 0.20687 2 
151.327 46.981 5.42903 -1.46794 2 
152.972 46.981 1.74274 -2.80026 2 
-13.159 45.336 3.45684 2.83859 2 
-11.514 45.336 10.48828 0.89846 2 
-9.869 45.336 12.59724 -2.73277 2 
-8.224 45.336 11.44721 -2.08084 2 
-6.579 45.336 9.67982 0.58870 2 
-4.935 45.336 8.06773 3.90794 2 
-3.290 45.336 11.96743 1.86055 2 
-1.645 45.336 11.06211 -0.79470 2 
0.000 45.336 10.08754 -0.49154 2 
1.645 45.336 12.79419 -0.50956 2 
3.290 45.336 8.27648 1.22915 2 
4.935 45.336 0.00000 -0.00000 0 
6.579 45.336 0.00000 -0.00000 0 
8.224 45.336 0.00000 -0.00000 0 
9.869 45.336 0.00000 -0.00000 0 
11.514 45.336 0.00000 -0.00000 0 
13.159 45.336 0.00000 -0.00000 0 
14.804 45.336 0.00000 -0.00000 0 
16.449 45.336 0.00000 -0.00000 0 
18.093 45.336 0.00000 -0.00000 0 
19.738 45.336 0.00000 -0.00000 0 
21.383 45.336 0.00000 -0.00000 0 
23.028 45.336 3.86126 1.78633 2 
24.673 45.336 13.82379 3.95352 2 
26.318 45.336 10.25282 0.27530 2 
27.963 45.336 9.50602 1.49698 2 
29.607 45.336 12.36922 2.27183 2 
31.252 45.336 10.51757 2.49577 2 
32.897 45.336 10.97140 3.61064 2 
34.542 45.336 11.34310 3.86251 2 
36.187 45.336 12.41108 0.78894 2 
37.832 45.336 10.65370 0.98612 2 
39.477 45.336 10.97839 1.07054 2 
41.121 45.336 12.57440 1.65384 2 
42.766 45.336 11.43570 -0.56951 2 
44.411 45.336 10.24713 -1.46162 2 
46.056 45.336 8.86041 3.79705 2 
47.701 45.336 10.28417 6.07139 2 
49.346 45.336 12.84339 5.57542 2 
50.991 45.336 9.64698 4.81232 2 
52.636 45.336 11.87047 1.46843 2 
54.280 45.336 12.56507 3.77285 2 
55.925 45.336 7.20859 1.34839 2 
57.570 45.336 9.75280 -1.18543 2 
59.215 45.336 10.99495 0.85237 2 
60.860 45.336 14.63947 0.74118 2 
62.505 45.336 13.00289 1.47014 2 
64.150 45.336 10.57326 2.08527 2 
65.794 45.336 9.72250 -0.86967 2 
67.439 45.336 12.49621 1.01663 2 
69.084 45.336 10.11130 1.01090 2 
70.729 45.336 8.13093 0.84187 2 
72.374 45.336 11.41853 1.20921 2 
74.019 45.336 10.45556 -0.83542 2 
75.664 45.336 13.28959 2.69261 2 
77.308 45.336 15.08744 0.67222 2 
78.953 45.336 12.05781 -0.57592 2 
80.598 45.336 13.70628 -0.44794 2 
82.243 45.336 14.98767 0.08161 2 
83.888 45.336 7.42584 -1.51339 2 
85.533 45.336 9.63802 -4.20710 2 
87.178 45.336 13.92893 -2.93656 2 
88.822 45.336 14.94726 0.22019 2 
90.467 45.336 12.38930 -0.17210 2 
92.112 45.336 9.87408 1.11154 2 
93.757 45.336 13.78044 -1.52361 2 
95.402 45.336 15.94932 -2.99044 2 
97.047 45.336 11.45815 -0.60421 2 
98.692 45.336 11.95208 1.33278 2 
100.336 45.336 8.07996 -0.06311 2 
101.981 45.336 9.46596 -1.13535 2 
103.626 45.336 0.00000 -0.00000 0 
105.271 45.336 0.00000 -0.00000 0 
106.916 45.336 8.98886 4.39245 2 
108.561 45.336 13.22390 2.97901 2 
110.206 45.336 13.64889 -0.28697 2 
111.850 45.336 7.41827 -1.03359 2 
113.495 45.336 11.50768 1.96816 2 
115.140 45.336 14.45051 0.56764 2 
116.785 45.336 11.31933 1.31751 2 
118.430 45.336 11.13236 2.62566 2 
120.075 45.336 9.66971 -2.03326 2 
121.720 45.336 13.27321 -1.91247 2 
123.364 45.336 11.68563 2.86234 2 
125.009 45.336 11.53062 -0.77230 2 
126.654 45.336 10.70930 -1.26441 2 
128.299 45.336 9.72491 0.55905 2 
129.944 45.336 11.75788 -1.90241 2 
131.589 45.336 13.31893 -0.21321 2 
133.234 45.336 8.73355 0.89285 2 
134.879 45.336 9.05507 -0.68423 2 
136.523 45.336 9.13008 -4.81560 2 
138.168 45.336 12.42654 -0.80292 2 
139.813 45.336 9.06620 -6.29918 2 
141.458 45.336 11.61712 -5.05595 2 
143.103 45.336 11.61338 -0.13224 2 
144.748 45.336 8.01707 -0.53345 2 
146.393 45.336 9.03791 -0.63469 2 
148.037 45.336 12.14440 -1.86221 2 
149.682 45.336 8.38271 0.87965 2 
151.327 45.336 7.01795 1.39575 2 
152.972 45.336 2.07857 -2.95128 2 
-13.159 43.692 4.51785 1.05343 2 
-11.514 43.692 11.74339 1.28029 2 
-9.869 43.692 11.66901 0.62927 2 
-8.224 43.692 10.69679 1.98978 2 
-6.579 43.692 8.90495 1.98844 2 
-4.935 43.692 9.51131 2.03237 2 
-3.290 43.692 10.59800 -0.92567 2 
-1.645 43.692 9.94283 0.26044 2 
0.000 43.692 10.34351 0.39113 2 
1.645 43.692 10.13946 -2.67130 2 
3.290 43.692 9.28502 -1.43313 2 
4.935 43.692 0.00000 -0.00000 0 
6.579 43.692 0.00000 -0.00000 0 
8.224 43.692 0.00000 -0.00000 0 
9.869 43.692 0.00000 -0.00000 0 
11.514 43.692 0.00000 -0.00000 0 
13.159 43.692 0.00000 -0.00000 0 
14.804 43.692 0.00000 -0.00000 0 
16.449 43.692 0.00000 -0.00000 0 
18.093 43.692 0.00000 -0.00000 0 
19.738 43.692 0.00000 -0.00000 0 
21.383 43.692 0.00000 -0.00000 0 
23.028 43.692 4.38528 -0.57135 2 
24.673 43.692 12.45391 2.82143 2 
26.318 43.692 11.90708 0.06997 2 
27.963 43.692 12.86163 2.75980 2 
29.607 43.692 13.84380 1.62522 2 
31.252 43.692 12.73966 0.10132 2 
32.897 43.692 10.73543 0.12836 2 
34.542 43.692 9.22768 -0.01722 2 
36.187 43.692 12.91755 -1.96389 2 
37.832 43.692 13.43875 1.06620 2 
39.477 43.692 9.66136 1.25477 2 
41.121 43.692 11.06966 0.42324 2 
42.766 43.692 10.49100 3.45214 2 
44.411 43.692 10.76038 1.79270 2 
46.056 43.692 10.28318 0.32392 2 
47.701 43.692 13.59522 3.88072 2 
49.346 43.692 11.92864 4.42143 2 
50.991 43.692 7.86229 3.17167 2 
52.636 43.692 9.66661 0.58843 2 
54.280 43.692 11.54105 -0.11554 2 
55.925 43.692 10.37241 2.50986 2 
57.570 43.692 12.69269 3.11029 2 
59.215 43.692 11.24668 2.23759 2 
60.860 43.692 12.35664 -3.77921 2 
62.505 43.692 12.33060 -1.49537 2 
64.150 43.692 13.81555 4.80441 2 
65.794 43.692 12.00779 2.90278 2 
67.439 43.692 14.11980 1.35783 2 
69.084 43.692 12.63414 -0.73818 2 
70.729 43.692 8.03183 -2.06012 2 
72.374 43.692 9.93422 1.64439 2 
74.019 43.692 12.07017 -1.21217 2 
75.664 43.692 13.84360 -1.82245 2 
77.308 43.692 13.51903 -0.24275 2 
78.953 43.692 8.66316 -0.32114 2 
80.598 43.692 8.64422 -2.09238 2 
82.243 43.692 11.23057 -0.23833 2 
83.888 43.692 15.34671 -1.61167 2 
85.533 43.692 13.01427 -1.50284 2 
87.178 43.692 12.50495 -0.83277 2 
88.822 43.692 10.30964 0.43272 2 
90.467 43.692 13.64405 3.23040 2 
92.112 43.692 9.54151 1.76173 2 
93.757 43.692 11.20840 2.77786 2 
95.402 43.692 13.01996 -2.22665 2 
97.047 43.692 13.35278 -0.12519 2 
98.692 43.692 10.70926 4.18778 2 
100.336 43.692 9.74360 -2.86164 2 
101.981 43.692 18.93193 -2.27070 2 
103.626 43.692 0.00000 -0.00000 0 
105.271 43.692 0.00000 -0.00000 0 
106.916 43.692 5.64028 1.87833 2 
108.561 43.692 11.28057 3.75667 2 
110.206 43.692 12.87663 -1.00482 2 
111.850 43.692 10.48652 0.44006 2 
113.495 43.692 12.15111 -2.58529 2 
115.140 43.692 15.59344 0.11022 2 
116.785 43.692 15.22180 -0.55597 2 
118.430 43.692 11.50538 0.57721 2 
120.075 43.692 13.28890 -2.21366 2 
121.720 43.692 14.01900 0.22289 2 
123.364 43.692 11.09679 0.78774 2 
125.009 43.692 10.52645 -5.14292 2 
126.654 43.692 9.35315 -2.52093 2 
128.299 43.692 11.66809 0.27054 2 
129.944 43.692 12.11586 -1.28080 2 
131.589 43.692 9.92676 -0.52888 2 
133.234 43.692 8.19062 1.13283 2 
134.879 43.692 12.28915 1.77049 2 
136.523 43.692 15.02784 -1.32124 2 
138.168 43.692 14.72975 -1.60712 2 
139.813 43.692 12.41703 -1.38574 2 
141.458 43.692 11.81259 -4.21988 2 
143.103 43.692 12.33785 -3.15240 2 
144.748 43.692 12.55741 -1.80097 2 
146.393 43.692 12.45650 -0.37797 2 
148.037 43.692 9.99106 -1.14823 2 
149.682 43.692 9.75890 -2.78707 2 
151.327 43.692 11.38430 1.73049 2 
152.972 43.692 2.41439 -3.10230 2 
-13.159 42.047 6.43493 0.22923 2 
-11.514 42.047 11.74062 2.00884 2 
-9.869 42.047 10.50263 4.30719 2 
-8.224 42.047 10.21124 1.52996 2 
-6.579 42.047 8.92655 3.90548 2 
-4.935 42.047 11.20324 -0.85041 2 
-3.290 42.047 8.80573 -0.23555 2 
-1.645 42.047 7.79028 -0.11178 2 
0.000 42.047 9.59505 0.06784 2 
1.645 42.047 11.22813 0.08769 2 
3.290 42.047 12.64715 0.71830 2 
4.935 42.047 0.00000 -0.00000 0 
6.579 42.047 0.00000 -0.00000 0 
8.224 42.047 0.00000 -0.00000 0 
9.869 42.047 0.00000 -0.00000 0 
11.514 42.047 0.00000 -0.00000 0 
13.159 42.047 0.00000 -0.00000 0 
14.804 42.047 0.00000 -0.00000 0 
16.449 42.047 0.00000 -0.00000 0 
18.093 42.047 0.00000 -0.00000 0 
19.738 42.047 0.00000 -0.00000 0 
21.383 42.047 0.00000 -0.00000 0 
23.028 42.047 4.90930 -2.92904 2 
24.673 42.047 9.89757 1.06276 2 
26.318 42.047 12.60171 -0.17963 2 
27.963 42.047 10.90174 3.03975 2 
29.607 42.047 14.56017 0.20914 2 
31.252 42.047 11.94255 2.04182 2 
32.897 42.047 10.10140 2.77440 2 
34.542 42.047 11.40730 1.35920 2 
36.187 42.047 15.29432 -0.37542 2 
37.832 42.047 10.67106 -0.91003 2 
39.477 42.047 9.55827 2.31295 2 
41.121 42.047 8.39385 -0.29612 2 
42.766 42.047 7.90504 1.89397 2 
44.411 42.047 11.82478 -1.28731 2 
46.056 42.047 10.33169 -1.12475 2 
47.701 42.047 10.91182 2.53902 2 
49.346 42.047 10.96357 -1.46464 2 
50.991 42.047 10.40494 -1.08910 2 
52.636 42.047 10.45642 2.46502 2 
54.280 42.047 11.32316 1.32957 2 
55.925 42.047 12.25599 -0.74638 2 
57.570 42.047 12.51922 -1.94808 2 
59.215 42.047 9.81916 -0.96921 2 
60.860 42.047 11.16845 -1.22277 2 
62.505 42.047 11.71822 -0.34471 2 
64.150 42.047 11.69893 2.39144 2 
65.794 42.047 10.31047 4.13396 2 
67.439 42.047 12.29412 2.98011 2 
69.084 42.047 15.15698 -2.48725 2 
70.729 42.047 10.46664 1.39957 2 
72.374 42.047 9.02256 1.44018 2 
74.019 42.047 11.79938 -0.79340 2 
75.664 42.047 13.62470 -2.39042 2 
77.308 42.047 9.94901 1.56202 2 
78.953 42.047 10.07801 6.16154 2 
80.598 42.047 13.67076 1.56321 2 
82.243 42.047 11.26016 -1.88906 2 
83.888 42.047 12.71897 -0.98161 2 
85.533 42.047 12.07844 2.32698 2 
87.178 42.047 12.22702 1.34641 2 
88.822 42.047 8.48701 -0.10040 2 
90.467 42.047 13.55633 3.27248 2 
92.112 42.047 9.20893 2.41192 2 
93.757 42.047 9.35478 1.29224 2 
95.402 42.047 11.89573 -0.93149 2 
97.047 42.047 10.06012 -0.15753 2 
98.692 42.047 10.34552 1.25708 2 
100.336 42.047 13.06309 -0.34293 2 
101.981 42.047 17.25483 -0.36580 2 
103.626 42.047 0.00000 -0.00000 0 
105.271 42.047 0.00000 -0.00000 0 
106.916 42.047 7.77459 -1.32587 2 
108.561 42.047 11.15217 1.64230 2 
110.206 42.047 14.45217 1.62612 2 
111.850 42.047 13.55477 1.91370 2 
113.495 42.047 11.61998 -1.11718 2 
115.140 42.047 15.65417 1.55496 2 
116.785 42.047 14.78082 4.99382 2 
118.430 42.047 11.49911 0.46845 2 
120.075 42.047 13.08014 -2.48755 2 
121.720 42.047 11.90815 -0.99705 2 
123.364 42.047 13.16474 -1.22065 2 
125.009 42.047 13.21775 -1.91717 2 
126.654 42.047 13.16639 -2.69823 2 
128.299 42.047 15.33818 -1.68174 2 
129.944 42.047 12.73169 -0.53941 2 
131.589 42.047 10.39087 -2.32405 2 
133.234 42.047 12.89158 -2.88683 2 
134.879 42.047 15.18895 -0.19353 2 
136.523 42.047 17.00332 -1.36507 2 
138.168 42.047 13.33294 -6.73685 2 
139.813 42.047 10.40764 -3.01990 2 
141.458 42.047 10.39005 -2.99472 2 
143.103 42.047 10.57870 -2.29443 2 
144.748 42.047 11.72437 -3.00202 2 
146.393 42.047 15.21954 -1.11126 2 
148.037 42.047 11.45713 -1.30756 2 
149.682 42.047 9.52241 -3.12050 2 
151.327 42.047 15.54794 1.05140 2 
152.972 42.047 2.75021 -3.25331 2 
-13.159 40.402 7.78668 1.23538 2 
-11.514 40.402 11.53410 1.02511 2 
-9.869 40.402 10.21543 1.36627 2 
-8.224 40.402 12.09346 0.32147 2 
-6.579 40.402 11.86968 -0.44074 2 
-4.935 40.402 11.49939 -0.48345 2 
-3.290 40.402 8.64865 0.16851 2 
-1.645 40.402 8.32908 -0.92022 2 
0.000 40.402 8.96259 1.08921 2 
1.645 40.402 11.40878 0.92141 2 
3.290 40.402 15.79008 -0.40509 2 
4.935 40.402 0.00000 -0.00000 0 
6.579 40.402 0.00000 -0.00000 0 
8.224 40.402 0.00000 -0.00000 0 
9.869 40.402 0.00000 -0.00000 0 
11.514 40.402 0.00000 -0.00000 0 
13.159 40.402 0.00000 -0.00000 0 
14.804 40.402 0.00000 -0.00000 0 
16.449 40.402 0.00000 -0.00000 0 
18.093 40.402 0.00000 -0.00000 0 
19.738 40.402 0.00000 -0.00000 0 
21.383 40.402 0.00000 -0.00000 0 
23.028 40.402 5.73491 1.38419 2 
24.673 40.402 10.29930 0.00121 2 
26.318 40.402 10.04092 1.92090 2 
27.963 40.402 9.40556 1.35530 2 
29.607 40.402 12.10842 0.14090 2 
31.252 40.402 11.34893 0.52631 2 
32.897 40.402 10.60925 -0.04217 2 
34.542 40.402 9.79558 2.43709 2 
36.187 40.402 10.99143 3.55555 2 
37.832 40.402 8.86939 0.79245 2 
39.477 40.402 11.43827 0.31696 2 
41.121 40.402 10.82397 0.88940 2 
42.766 40.402 11.34434 2.10484 2 
44.411 40.402 10.67383 -2.18715 2 
46.056 40.402 7.59636 -1.00646 2 
47.701 40.402 8.65746 2.20443 2 
49.346 40.402 9.75826 0.40041 2 
50.991 40.402 11.63566 0.57243 2 
52.636 40.402 9.28313 3.13800 2 
54.280 40.402 8.98552 3.08628 2 
55.925 40.402 12.05122 0.17144 2 
57.570 40.402 13.22300 -1.48064 2 
59.215 40.402 10.42085 -0.80380 2 
60.860 40.402 9.88885 0.63294 2 
62.505 40.402 9.31475 -0.53945 2 
64.150 40.402 6.35075 2.31570 2 
65.794 40.402 8.41052 3.94906 2 
67.439 40.402 11.77902 3.32350 2 
69.084 40.402 12.53158 -1.46503 2 
70.729 40.402 7.63270 0.38205 2 