TITLE = "B00001"
VARIABLES = "X [mm]", "Y [mm]", "Vx [m/s]", "Vy [m/s]", "Flag"
ZONE T="Frame 1", I=102, J=77, F=POINT
-13.159 53.561 5.72651 1.39952 2 
-11.514 53.561 11.74556 -0.57243 2 
-9.869 53.561 9.84629 0.30264 2 
-8.224 53.561 10.75087 0.32419 2 
-6.579 53.561 13.35482 0.43922 2 
-4.935 53.561 14.09164 0.60752 2 
-3.290 53.561 11.27856 1.45909 2 
-1.645 53.561 8.89001 2.12957 2 
0.000 53.561 10.86567 1.36414 2 
1.645 53.561 10.01064 1.99010 2 
3.290 53.561 0.00000 -0.00000 0 
4.935 53.561 0.00000 -0.00000 0 
6.579 53.561 0.00000 -0.00000 0 
8.224 53.561 0.00000 -0.00000 0 
9.869 53.561 0.00000 -0.00000 0 
11.514 53.561 0.00000 -0.00000 0 
13.159 53.561 0.00000 -0.00000 0 
14.804 53.561 0.00000 -0.00000 0 
16.449 53.561 0.00000 -0.00000 0 
18.093 53.561 0.00000 -0.00000 0 
19.738 53.561 0.00000 -0.00000 0 
21.383 53.561 0.00000 -0.00000 0 
23.028 53.561 12.93541 -0.66012 2 
24.673 53.561 8.21777 -1.49126 2 
26.318 53.561 10.57748 0.26657 2 
27.963 53.561 9.50218 1.38977 2 
29.607 53.561 8.82890 1.14960 2 
31.252 53.561 11.37801 1.04421 2 
32.897 53.561 10.53859 1.55583 2 
34.542 53.561 8.76346 0.71690 2 
36.187 53.561 11.65718 -0.66155 2 
37.832 53.561 12.94174 -0.06440 2 
39.477 53.561 11.35751 -0.77211 2 
41.121 53.561 10.96519 -1.12999 2 
42.766 53.561 13.54642 -0.88698 2 
44.411 53.561 11.11698 -1.71328 2 
46.056 53.561 8.85594 -0.68738 2 
47.701 53.561 11.85707 -1.00547 2 
49.346 53.561 7.90884 -1.29451 2 
50.991 53.561 6.48321 1.61824 2 
52.636 53.561 13.08304 1.69165 2 
54.280 53.561 10.84696 1.75059 2 
55.925 53.561 8.14956 2.52354 2 
57.570 53.561 13.46490 2.41707 2 
59.215 53.561 8.02257 1.06105 2 
60.860 53.561 6.85827 -0.03917 2 
62.505 53.561 10.78117 0.08034 2 
64.150 53.561 10.86543 1.64134 2 
65.794 53.561 10.98065 2.93140 2 
67.439 53.561 8.79583 2.42645 2 
69.084 53.561 10.53074 2.91663 2 
70.729 53.561 11.23064 3.29622 2 
72.374 53.561 7.87122 1.31245 2 
74.019 53.561 9.95633 2.57086 2 
75.664 53.561 13.89948 2.85245 2 
77.308 53.561 14.46955 1.88673 2 
78.953 53.561 7.73574 2.12955 2 
80.598 53.561 10.42359 2.60369 2 
82.243 53.561 11.35556 1.52484 2 
83.888 53.561 11.29711 -0.48831 2 
85.533 53.561 11.35129 0.14373 2 
87.178 53.561 17.10939 2.22647 2 
88.822 53.561 15.40376 1.70868 2 
90.467 53.561 7.86092 1.13600 2 
92.112 53.561 10.94604 -1.20076 2 
93.757 53.561 7.56638 -2.27425 2 
95.402 53.561 7.14624 -1.85956 2 
97.047 53.561 13.04894 -1.64340 2 
98.692 53.561 13.44785 -1.45289 2 
100.336 53.561 9.15005 0.96719 2 
101.981 53.561 0.00000 -0.00000 0 
103.626 53.561 0.00000 -0.00000 0 
105.271 53.561 0.00000 -0.00000 0 
106.916 53.561 6.56438 0.93246 2 
108.561 53.561 13.12877 1.86492 2 
110.206 53.561 13.60791 1.36108 2 
111.850 53.561 17.18557 3.66311 2 
113.495 53.561 9.26216 1.86219 2 
115.140 53.561 13.21780 1.96567 2 
116.785 53.561 15.87182 0.28729 2 
118.430 53.561 14.28777 -2.16056 2 
120.075 53.561 7.81365 0.10065 2 
121.720 53.561 12.27048 0.53545 2 
123.364 53.561 11.91497 3.34416 2 
125.009 53.561 9.18802 3.21715 2 
126.654 53.561 12.50116 1.82049 2 
128.299 53.561 9.80592 1.73665 2 
129.944 53.561 11.01018 0.57455 2 
131.589 53.561 9.88938 1.94032 2 
133.234 53.561 12.05812 3.64959 2 
134.879 53.561 9.64385 2.09269 2 
136.523 53.561 7.22958 0.53578 2 
138.168 53.561 8.71514 -1.22365 2 
139.813 53.561 12.39536 -0.63952 2 
141.458 53.561 11.77927 -0.46030 2 
143.103 53.561 11.55554 -1.75816 2 
144.748 53.561 10.55079 0.04362 2 
146.393 53.561 12.76699 2.64637 2 
148.037 53.561 11.01678 3.67053 2 
149.682 53.561 10.88728 -1.02571 2 
151.327 53.561 16.05083 -3.21553 2 
152.972 53.561 0.00000 -0.00000 0 
-13.159 51.916 5.03275 1.35300 2 
-11.514 51.916 11.33931 -1.27832 2 
-9.869 51.916 10.53403 -0.68606 2 
-8.224 51.916 11.76119 1.01416 2 
-6.579 51.916 9.79037 2.03430 2 
-4.935 51.916 9.67833 0.83599 2 
-3.290 51.916 8.22863 3.58981 2 
-1.645 51.916 9.31828 2.21692 2 
0.000 51.916 9.86338 2.63281 2 
1.645 51.916 13.03508 3.45914 2 
3.290 51.916 0.00000 -0.00000 0 
4.935 51.916 0.00000 -0.00000 0 
6.579 51.916 0.00000 -0.00000 0 
8.224 51.916 0.00000 -0.00000 0 
9.869 51.916 0.00000 -0.00000 0 
11.514 51.916 0.00000 -0.00000 0 
13.159 51.916 0.00000 -0.00000 0 
14.804 51.916 0.00000 -0.00000 0 
16.449 51.916 0.00000 -0.00000 0 
18.093 51.916 0.00000 -0.00000 0 
19.738 51.916 0.00000 -0.00000 0 
21.383 51.916 0.00000 -0.00000 0 
23.028 51.916 7.84140 -0.94520 2 
24.673 51.916 9.40327 -1.83337 2 
26.318 51.916 11.00530 1.14587 2 
27.963 51.916 9.67849 -0.92598 2 
29.607 51.916 9.02850 -0.96553 2 
31.252 51.916 10.89051 1.83680 2 
32.897 51.916 10.62834 2.74772 2 
34.542 51.916 8.16121 3.24133 2 
36.187 51.916 10.68897 3.06909 2 
37.832 51.916 14.98458 1.15163 2 
39.477 51.916 15.36668 0.21885 2 
41.121 51.916 11.45579 0.30139 2 
42.766 51.916 10.30873 1.39745 2 
44.411 51.916 8.97005 3.18595 2 
46.056 51.916 14.42155 1.38615 2 
47.701 51.916 12.05340 1.39846 2 
49.346 51.916 6.83279 0.25021 2 
50.991 51.916 10.74256 -1.80075 2 
52.636 51.916 13.72816 4.68725 2 
54.280 51.916 12.19044 6.16567 2 
55.925 51.916 13.27035 5.41948 2 
57.570 51.916 13.05509 6.13497 2 
59.215 51.916 11.32133 0.47409 2 
60.860 51.916 10.12386 -0.13893 2 
62.505 51.916 12.99840 -1.07032 2 
64.150 51.916 13.12227 -1.38227 2 
65.794 51.916 11.29734 -1.82543 2 
67.439 51.916 10.94556 0.40530 2 
69.084 51.916 11.82702 3.16702 2 
70.729 51.916 11.75192 3.52288 2 
72.374 51.916 9.67349 3.71121 2 
74.019 51.916 13.28825 6.89793 2 
75.664 51.916 16.11309 2.33950 2 
77.308 51.916 11.77254 0.59039 2 
78.953 51.916 11.36111 0.85574 2 
80.598 51.916 9.13953 -0.08540 2 
82.243 51.916 13.14871 0.19610 2 
83.888 51.916 12.97487 0.25256 2 
85.533 51.916 10.80784 1.47554 2 
87.178 51.916 14.75884 3.20695 2 
88.822 51.916 8.35981 3.76396 2 
90.467 51.916 5.76494 3.36590 2 
92.112 51.916 10.37672 -4.76151 2 
93.757 51.916 11.08294 0.91810 2 
95.402 51.916 12.96285 3.51048 2 
97.047 51.916 12.35005 0.02425 2 
98.692 51.916 14.44819 1.34398 2 
100.336 51.916 22.00036 -1.63297 2 
101.981 51.916 0.00000 -0.00000 0 
103.626 51.916 0.00000 -0.00000 0 
105.271 51.916 0.00000 -0.00000 0 
106.916 51.916 10.33523 -0.30302 2 
108.561 51.916 10.09053 2.80732 2 
110.206 51.916 11.81451 -0.52945 2 
111.850 51.916 14.02256 2.34440 2 
113.495 51.916 12.91593 1.38167 2 
115.140 51.916 12.17594 1.95905 2 
116.785 51.916 10.85124 0.44171 2 
118.430 51.916 13.90749 -1.33067 2 
120.075 51.916 13.62543 2.38256 2 
121.720 51.916 12.70806 1.24317 2 
123.364 51.916 11.64863 1.95681 2 
125.009 51.916 10.68240 -4.22001 2 
126.654 51.916 12.52211 -3.60229 2 
128.299 51.916 12.56049 0.15083 2 
129.944 51.916 12.88724 0.15796 2 
131.589 51.916 11.10117 2.22042 2 
133.234 51.916 12.22462 -1.45613 2 
134.879 51.916 14.00446 -0.58004 2 
136.523 51.916 11.95907 -0.37605 2 
138.168 51.916 9.61375 -1.63054 2 
139.813 51.916 10.37991 -0.11695 2 
141.458 51.916 12.91100 3.52370 2 
143.103 51.916 11.19131 3.66016 2 
144.748 51.916 11.60101 -1.69262 2 
146.393 51.916 13.40195 -0.27119 2 
148.037 51.916 11.57965 3.27968 2 
149.682 51.916 12.47560 -1.14556 2 
151.327 51.916 14.67852 -3.56621 2 
152.972 51.916 1.34985 0.21282 1 
-13.159 50.271 6.43469 1.68441 2 
-11.514 50.271 11.43564 3.49287 2 
-9.869 50.271 9.60987 0.38034 2 
-8.224 50.271 12.07610 0.45415 2 
-6.579 50.271 9.82377 1.16810 2 
-4.935 50.271 10.36314 2.31272 2 
-3.290 50.271 11.08573 -2.51402 2 
-1.645 50.271 11.85951 -2.29164 2 
0.000 50.271 9.67226 -0.75618 2 
1.645 50.271 20.43181 -0.32298 2 
3.290 50.271 0.00000 -0.00000 0 
4.935 50.271 0.00000 -0.00000 0 
6.579 50.271 0.00000 -0.00000 0 
8.224 50.271 0.00000 -0.00000 0 
9.869 50.271 0.00000 -0.00000 0 
11.514 50.271 0.00000 -0.00000 0 
13.159 50.271 0.00000 -0.00000 0 
14.804 50.271 0.00000 -0.00000 0 
16.449 50.271 0.00000 -0.00000 0 
18.093 50.271 0.00000 -0.00000 0 
19.738 50.271 0.00000 -0.00000 0 
21.383 50.271 0.00000 -0.00000 0 
23.028 50.271 5.29439 -1.08775 2 
24.673 50.271 10.58878 -2.17549 2 
26.318 50.271 9.72324 0.15017 2 
27.963 50.271 11.66502 -0.93507 2 
29.607 50.271 9.68766 0.81795 2 
31.252 50.271 8.59606 0.89827 2 
32.897 50.271 11.41471 1.75861 2 
34.542 50.271 10.70788 1.06760 2 
36.187 50.271 9.75695 0.03508 2 
37.832 50.271 12.06527 -0.72675 2 
39.477 50.271 14.08970 -1.13732 2 
41.121 50.271 14.52358 2.76166 2 
42.766 50.271 10.91209 4.87137 2 
44.411 50.271 9.27358 3.90321 2 
46.056 50.271 15.02716 1.44207 2 
47.701 50.271 15.57323 0.11488 2 
49.346 50.271 11.34658 2.11783 2 
50.991 50.271 14.19420 -0.64286 2 
52.636 50.271 11.38105 0.32423 2 
54.280 50.271 13.04259 2.13983 2 
55.925 50.271 14.00385 0.66418 2 
57.570 50.271 12.36220 2.65592 2 
59.215 50.271 14.35583 -0.51722 2 
60.860 50.271 7.51092 1.16571 2 
62.505 50.271 10.02383 3.20808 2 
64.150 50.271 11.87586 4.00700 2 
65.794 50.271 11.02868 0.50271 2 
67.439 50.271 14.43237 2.53810 2 
69.084 50.271 14.15757 4.01984 2 
70.729 50.271 12.25257 -0.16106 2 
72.374 50.271 9.82630 2.06906 2 
74.019 50.271 9.27503 5.10190 2 
75.664 50.271 11.71702 4.57168 2 
77.308 50.271 8.30966 2.42242 2 
78.953 50.271 13.65075 1.10243 2 
80.598 50.271 14.04469 1.31261 2 
82.243 50.271 15.01959 0.65546 2 
83.888 50.271 13.67510 0.45483 2 
85.533 50.271 10.30135 1.54501 2 
87.178 50.271 12.15544 1.01821 2 
88.822 50.271 10.34785 -0.01155 2 
90.467 50.271 8.38064 0.80683 2 
92.112 50.271 8.77258 -2.19233 2 
93.757 50.271 10.22741 -0.80376 2 
95.402 50.271 10.11034 0.75924 2 
97.047 50.271 9.82210 0.95635 2 
98.692 50.271 14.86354 2.75286 2 
100.336 50.271 15.88516 0.65911 2 
101.981 50.271 0.00000 -0.00000 0 
103.626 50.271 0.00000 -0.00000 0 
105.271 50.271 0.00000 -0.00000 0 
106.916 50.271 9.77411 -1.35901 2 
108.561 50.271 12.69224 -0.23619 2 
110.206 50.271 9.55359 -1.20192 2 
111.850 50.271 10.05649 -0.90706 2 
113.495 50.271 13.96544 -0.01066 2 
115.140 50.271 12.46148 0.12817 2 
116.785 50.271 12.99063 -1.70858 2 
118.430 50.271 10.20864 0.92204 2 
120.075 50.271 10.94907 1.09470 2 
121.720 50.271 10.53788 -1.10291 2 
123.364 50.271 9.60053 -0.06192 2 
125.009 50.271 12.96948 -2.13174 2 
126.654 50.271 14.05281 0.36436 2 
128.299 50.271 14.26908 2.03053 2 
129.944 50.271 12.54854 0.48031 2 
131.589 50.271 12.74771 2.33396 2 
133.234 50.271 11.59283 0.03317 2 
134.879 50.271 11.61868 -1.60370 2 
136.523 50.271 12.20087 -1.24191 2 
138.168 50.271 9.60703 -2.12241 2 
139.813 50.271 8.12935 -0.29363 2 
141.458 50.271 11.72941 1.69662 2 
143.103 50.271 10.72126 -0.03129 2 
144.748 50.271 11.23664 -2.94501 2 
146.393 50.271 10.43620 -0.43733 2 
148.037 50.271 9.97471 0.89676 2 
149.682 50.271 13.90046 -0.17765 2 
151.327 50.271 14.85699 -1.15113 2 
152.972 50.271 2.28986 -0.53322 1 
-13.159 48.626 6.88443 0.32843 2 
-11.514 48.626 9.36487 1.22733 2 
-9.869 48.626 8.50122 0.91717 2 
-8.224 48.626 12.52946 -0.04187 2 
-6.579 48.626 11.46412 1.69056 2 
-4.935 48.626 12.16504 3.18083 2 
-3.290 48.626 12.47887 -1.36899 2 
-1.645 48.626 11.75972 -1.30194 2 
0.000 48.626 10.89317 0.95536 2 
1.645 48.626 17.17922 -0.58708 2 
3.290 48.626 0.00000 -0.00000 0 
4.935 48.626 0.00000 -0.00000 0 
6.579 48.626 0.00000 -0.00000 0 
8.224 48.626 0.00000 -0.00000 0 
9.869 48.626 0.00000 -0.00000 0 
11.514 48.626 0.00000 -0.00000 0 
13.159 48.626 0.00000 -0.00000 0 
14.804 48.626 0.00000 -0.00000 0 
16.449 48.626 0.00000 -0.00000 0 
18.093 48.626 0.00000 -0.00000 0 
19.738 48.626 0.00000 -0.00000 0 
21.383 48.626 0.00000 -0.00000 0 
23.028 48.626 12.05774 0.61825 2 
24.673 48.626 10.25037 1.14601 2 
26.318 48.626 11.57249 -1.00398 2 
27.963 48.626 13.59803 0.74029 2 
29.607 48.626 10.38134 2.18507 2 
31.252 48.626 10.01823 0.34155 2 
32.897 48.626 12.91156 2.49444 2 
34.542 48.626 14.60515 0.78566 2 
36.187 48.626 11.08442 0.06087 2 
37.832 48.626 9.95966 2.02561 2 
39.477 48.626 11.03525 1.63051 2 
41.121 48.626 11.60619 3.41276 2 
42.766 48.626 10.34257 4.02022 2 
44.411 48.626 9.62741 1.19361 2 
46.056 48.626 11.13160 0.01936 2 
47.701 48.626 12.02875 0.60682 2 
49.346 48.626 10.76162 0.82689 2 
50.991 48.626 8.61174 1.40539 2 
52.636 48.626 8.06513 2.09797 2 
54.280 48.626 12.51027 0.38392 2 
55.925 48.626 11.84580 1.36907 2 
57.570 48.626 9.50726 2.38717 2 
59.215 48.626 13.72034 1.84034 2 
60.860 48.626 13.21861 3.29696 2 
62.505 48.626 10.00061 3.97000 2 
64.150 48.626 9.54272 2.31427 2 
65.794 48.626 10.89212 2.44739 2 
67.439 48.626 12.81340 6.31180 2 
69.084 48.626 10.74621 2.30165 2 
70.729 48.626 12.75322 -3.84500 2 
72.374 48.626 13.58290 -1.86888 2 
74.019 48.626 10.14195 0.90959 2 
75.664 48.626 7.65669 4.09768 2 
77.308 48.626 10.09308 3.06706 2 
78.953 48.626 15.94040 1.34911 2 
80.598 48.626 12.68066 2.37179 2 
82.243 48.626 9.38680 2.37486 2 
83.888 48.626 10.31860 -2.79764 2 
85.533 48.626 8.55016 -1.27762 2 
87.178 48.626 9.77873 3.62016 2 
88.822 48.626 11.80458 5.26441 2 
90.467 48.626 9.81003 1.46416 2 
92.112 48.626 12.78954 1.54305 2 
93.757 48.626 9.81810 1.39766 2 
95.402 48.626 7.95364 -0.18854 2 
97.047 48.626 10.08673 -2.75142 2 
98.692 48.626 8.99078 0.58973 2 
100.336 48.626 9.76997 2.95118 2 
101.981 48.626 0.00000 -0.00000 0 
103.626 48.626 0.00000 -0.00000 0 
105.271 48.626 0.00000 -0.00000 0 
106.916 48.626 11.91111 0.41785 2 
108.561 48.626 12.57536 -0.31760 2 
110.206 48.626 9.79872 -2.27990 2 
111.850 48.626 11.34294 -0.67252 2 
113.495 48.626 15.20870 -1.07007 2 
115.140 48.626 12.38496 -1.11900 2 
116.785 48.626 13.09489 0.14410 2 
118.430 48.626 11.87474 1.87503 2 
120.075 48.626 7.01180 -0.08275 2 
121.720 48.626 7.33538 -1.07386 2 
123.364 48.626 8.62799 1.26980 2 
125.009 48.626 9.98504 -1.38442 2 
126.654 48.626 11.91684 -2.91047 2 
128.299 48.626 14.55894 -0.48726 2 
129.944 48.626 13.63441 -1.75625 2 
131.589 48.626 12.78243 2.30931 2 
133.234 48.626 12.71797 2.89070 2 
134.879 48.626 10.54887 -3.25673 2 
136.523 48.626 12.44266 -2.10776 2 
138.168 48.626 7.11320 -2.23650 2 
139.813 48.626 5.87879 -0.47031 2 
141.458 48.626 12.09948 -0.66428 2 
143.103 48.626 13.50619 -0.67727 2 
144.748 48.626 10.09100 -1.97494 2 
146.393 48.626 9.93214 1.31083 2 
148.037 48.626 9.38625 -0.21709 2 
149.682 48.626 9.54844 -3.40873 2 
151.327 48.626 14.98724 -1.41734 2 
152.972 48.626 2.72935 -0.35640 1 
-13.159 46.981 7.93639 0.99970 2 
-11.514 46.981 8.85207 1.64235 2 
-9.869 46.981 9.46705 0.29675 2 
-8.224 46.981 12.69334 2.22624 2 
-6.579 46.981 11.07227 1.83579 2 
-4.935 46.981 9.56050 2.34487 2 
-3.290 46.981 9.77681 -0.55823 2 
-1.645 46.981 10.95399 -0.73361 2 
0.000 46.981 10.80784 0.31290 2 
1.645 46.981 13.92662 -0.85119 2 
3.290 46.981 0.00000 -0.00000 0 
4.935 46.981 0.00000 -0.00000 0 
6.579 46.981 0.00000 -0.00000 0 
8.224 46.981 0.00000 -0.00000 0 
9.869 46.981 0.00000 -0.00000 0 
11.514 46.981 0.00000 -0.00000 0 
13.159 46.981 0.00000 -0.00000 0 
14.804 46.981 0.00000 -0.00000 0 
16.449 46.981 0.00000 -0.00000 0 
18.093 46.981 0.00000 -0.00000 0 
19.738 46.981 0.00000 -0.00000 0 
21.383 46.981 0.00000 -0.00000 0 
23.028 46.981 12.04913 0.04116 2 
24.673 46.981 10.27094 3.40245 2 
26.318 46.981 14.18440 2.24670 2 
27.963 46.981 11.73593 0.66052 2 
29.607 46.981 10.34718 0.14317 2 
31.252 46.981 10.93014 0.87064 2 
32.897 46.981 13.15119 1.99966 2 
34.542 46.981 13.16965 0.32900 2 
36.187 46.981 12.47389 -0.64937 2 
37.832 46.981 11.90713 0.98042 2 
39.477 46.981 10.76001 2.59844 2 
41.121 46.981 12.70537 3.12296 2 
42.766 46.981 8.44417 1.50617 2 
44.411 46.981 8.22483 0.58419 2 
46.056 46.981 9.28667 -0.53149 2 
47.701 46.981 8.56862 2.08956 2 
49.346 46.981 12.49266 1.01485 2 
50.991 46.981 12.12180 3.03176 2 
52.636 46.981 8.84946 2.84969 2 
54.280 46.981 10.83731 0.78865 2 
55.925 46.981 12.52830 1.04380 2 
57.570 46.981 8.51016 -0.54970 2 
59.215 46.981 10.34514 -1.91606 2 
60.860 46.981 14.64492 1.23221 2 
62.505 46.981 12.15366 2.62936 2 
64.150 46.981 6.79322 4.66149 2 
65.794 46.981 9.61106 1.71526 2 
67.439 46.981 13.07056 0.54379 2 
69.084 46.981 10.21107 -2.12161 2 
70.729 46.981 14.24080 -2.65549 2 
72.374 46.981 15.28443 3.12429 2 
74.019 46.981 10.39525 2.93834 2 
75.664 46.981 9.64923 0.56599 2 
77.308 46.981 11.84191 0.13568 2 
78.953 46.981 12.88523 1.58657 2 
80.598 46.981 11.31664 3.43097 2 
82.243 46.981 9.20354 4.05055 2 
83.888 46.981 10.43246 0.65413 2 
85.533 46.981 9.93809 0.43537 2 
87.178 46.981 9.57263 3.69989 2 
88.822 46.981 9.58758 1.79617 2 
90.467 46.981 9.94019 -1.86534 2 
92.112 46.981 13.08312 -0.03934 2 
93.757 46.981 13.12844 4.35217 2 
95.402 46.981 12.94482 5.05610 2 
97.047 46.981 8.55485 -0.09575 2 
98.692 46.981 9.93813 1.80882 2 
100.336 46.981 13.20928 2.95957 2 
101.981 46.981 0.00000 -0.00000 0 
103.626 46.981 0.00000 -0.00000 0 
105.271 46.981 0.00000 -0.00000 0 
106.916 46.981 9.93521 0.50757 2 
108.561 46.981 12.06614 -0.28394 2 
110.206 46.981 11.06228 -1.06385 2 
111.850 46.981 12.58193 -1.19811 2 
113.495 46.981 13.79020 -1.35519 2 
115.140 46.981 12.70598 -0.10779 2 
116.785 46.981 11.71472 1.22885 2 
118.430 46.981 15.04031 2.45289 2 
120.075 46.981 14.59810 1.08849 2 
121.720 46.981 9.78653 -1.52056 2 
123.364 46.981 10.22745 -1.37514 2 
125.009 46.981 11.44041 -0.30373 2 
126.654 46.981 13.62381 -2.82495 2 
128.299 46.981 11.01468 -3.42792 2 
129.944 46.981 11.89867 -2.57857 2 
131.589 46.981 12.87022 0.62620 2 
133.234 46.981 12.43727 3.29173 2 
134.879 46.981 10.31443 1.42070 2 
136.523 46.981 11.63259 -0.29075 2 
138.168 46.981 9.80537 0.66255 2 
139.813 46.981 11.11505 3.11088 2 
141.458 46.981 17.65458 -1.08507 2 
143.103 46.981 16.29113 -1.32326 2 
144.748 46.981 10.30166 -0.84733 2 
146.393 46.981 13.02073 -0.71908 2 
148.037 46.981 12.72472 0.62536 2 
149.682 46.981 9.88213 0.68113 2 
151.327 46.981 14.63503 -1.81140 2 
152.972 46.981 2.06634 -1.03892 1 
-13.159 45.336 5.94581 2.36470 2 
-11.514 45.336 11.50085 -0.99933 2 
-9.869 45.336 10.94567 1.04871 2 
-8.224 45.336 11.09574 2.97010 2 
-6.579 45.336 7.84738 -0.74702 2 
-4.935 45.336 9.07997 -0.14784 2 
-3.290 45.336 7.43674 1.27197 2 
-1.645 45.336 11.74274 0.94660 2 
0.000 45.336 10.05760 0.49089 2 
1.645 45.336 11.30470 -0.82381 2 
3.290 45.336 13.11711 0.35638 2 
4.935 45.336 0.00000 -0.00000 0 
6.579 45.336 0.00000 -0.00000 0 
8.224 45.336 0.00000 -0.00000 0 
9.869 45.336 0.00000 -0.00000 0 
11.514 45.336 0.00000 -0.00000 0 
13.159 45.336 0.00000 -0.00000 0 
14.804 45.336 0.00000 -0.00000 0 
16.449 45.336 0.00000 -0.00000 0 
18.093 45.336 0.00000 -0.00000 0 
19.738 45.336 0.00000 -0.00000 0 
21.383 45.336 0.00000 -0.00000 0 
23.028 45.336 9.45082 -1.02751 2 
24.673 45.336 9.42047 1.21509 2 
26.318 45.336 12.04351 1.10586 2 
27.963 45.336 12.41683 -0.59438 2 
29.607 45.336 8.70459 0.92476 2 
31.252 45.336 7.87865 0.30036 2 
32.897 45.336 9.83852 1.41542 2 
34.542 45.336 10.12056 1.51933 2 
36.187 45.336 9.03300 -1.19688 2 
37.832 45.336 9.89251 -1.85207 2 
39.477 45.336 11.85112 -0.57991 2 
41.121 45.336 13.12509 0.03767 2 
42.766 45.336 9.72177 -0.30937 2 
44.411 45.336 9.09378 -0.08432 2 
46.056 45.336 10.39250 -1.69681 2 
47.701 45.336 9.40533 -0.88636 2 
49.346 45.336 11.71029 1.73381 2 
50.991 45.336 14.48487 1.87589 2 
52.636 45.336 10.88892 1.52439 2 
54.280 45.336 8.92333 0.51308 2 
55.925 45.336 10.86499 0.28789 2 
57.570 45.336 8.92663 -0.93496 2 
59.215 45.336 10.49670 -3.22815 2 
60.860 45.336 11.73743 1.60885 2 
62.505 45.336 9.88163 2.72599 2 
64.150 45.336 9.54274 1.05158 2 
65.794 45.336 13.94594 2.31471 2 
67.439 45.336 14.34500 0.45646 2 
69.084 45.336 10.43365 -0.70535 2 
70.729 45.336 14.25423 -2.96247 2 
72.374 45.336 12.53370 2.02481 2 
74.019 45.336 8.01852 -1.83611 2 
75.664 45.336 12.49874 0.06426 2 
77.308 45.336 13.89372 1.40341 2 
78.953 45.336 15.01643 -1.28135 2 
80.598 45.336 13.72133 0.76360 2 
82.243 45.336 12.22309 1.01021 2 
83.888 45.336 12.54935 -1.25201 2 
85.533 45.336 14.09069 1.13255 2 
87.178 45.336 10.11792 5.08990 2 
88.822 45.336 12.00563 0.35144 2 
90.467 45.336 10.25055 -0.65746 2 
92.112 45.336 9.64449 1.60027 2 
93.757 45.336 11.83606 4.09768 2 
95.402 45.336 12.05173 4.43148 2 
97.047 45.336 11.41501 2.61348 2 
98.692 45.336 8.35343 4.01608 2 
100.336 45.336 14.48146 2.69963 2 
101.981 45.336 8.75696 -1.22706 2 
103.626 45.336 0.00000 -0.00000 0 
105.271 45.336 0.00000 -0.00000 0 
106.916 45.336 8.55563 1.46404 2 
108.561 45.336 13.91532 1.94615 2 
110.206 45.336 11.17102 0.13272 2 
111.850 45.336 10.40452 -2.24060 2 
113.495 45.336 10.08527 0.44351 2 
115.140 45.336 13.12706 2.63211 2 
116.785 45.336 15.30563 -3.56762 2 
118.430 45.336 11.87658 -1.71566 2 
120.075 45.336 12.58690 1.53506 2 
121.720 45.336 11.37768 -2.02365 2 
123.364 45.336 11.89646 -0.49238 2 
125.009 45.336 12.17952 -0.59192 2 
126.654 45.336 14.65911 1.69774 2 
128.299 45.336 8.76012 -3.26306 2 
129.944 45.336 11.21285 -2.50482 2 
131.589 45.336 14.22591 -2.09605 2 
133.234 45.336 11.98441 -2.82577 2 
134.879 45.336 12.24647 -3.75279 2 
136.523 45.336 12.71893 -0.40219 2 
138.168 45.336 15.70867 2.65101 2 
139.813 45.336 15.42646 0.35102 2 
141.458 45.336 14.85014 -0.09889 2 
143.103 45.336 14.58048 -0.91820 2 
144.748 45.336 13.40643 -0.96195 2 
146.393 45.336 15.28124 -2.26417 2 
148.037 45.336 14.99598 -3.04230 2 
149.682 45.336 9.78282 -0.27786 2 
151.327 45.336 11.74227 1.66002 2 
152.972 45.336 1.65867 0.03545 1 
-13.159 43.692 4.45495 1.74092 2 
-11.514 43.692 11.17652 -0.60831 2 
-9.869 43.692 11.23333 0.68304 2 
-8.224 43.692 11.27069 -0.19470 2 
-6.579 43.692 8.19688 -2.54168 2 
-4.935 43.692 12.03621 -1.02695 2 
-3.290 43.692 10.62219 0.28843 2 
-1.645 43.692 10.98348 -1.51349 2 
0.000 43.692 10.25234 -0.69122 2 
1.645 43.692 10.95716 3.07010 2 
3.290 43.692 12.27254 3.25416 2 
4.935 43.692 0.00000 -0.00000 0 
6.579 43.692 0.00000 -0.00000 0 
8.224 43.692 0.00000 -0.00000 0 
9.869 43.692 0.00000 -0.00000 0 
11.514 43.692 0.00000 -0.00000 0 
13.159 43.692 0.00000 -0.00000 0 
14.804 43.692 0.00000 -0.00000 0 
16.449 43.692 0.00000 -0.00000 0 
18.093 43.692 0.00000 -0.00000 0 
19.738 43.692 0.00000 -0.00000 0 
21.383 43.692 0.00000 -0.00000 0 
23.028 43.692 9.26926 4.33549 2 
24.673 43.692 12.39502 1.86353 2 
26.318 43.692 10.51276 2.37194 2 
27.963 43.692 13.50908 0.36967 2 
29.607 43.692 9.82667 3.51936 2 
31.252 43.692 10.84648 -1.26112 2 
32.897 43.692 8.88559 -0.05429 2 
34.542 43.692 10.58404 1.26230 2 
36.187 43.692 10.96278 -0.78956 2 
37.832 43.692 10.60655 -0.57891 2 
39.477 43.692 11.46475 0.22624 2 
41.121 43.692 13.02947 2.04853 2 
42.766 43.692 12.81067 0.86821 2 
44.411 43.692 12.43867 0.77697 2 
46.056 43.692 11.43006 2.73184 2 
47.701 43.692 11.33846 4.41471 2 
49.346 43.692 12.24477 1.65560 2 
50.991 43.692 11.86311 -1.39915 2 
52.636 43.692 10.91764 -0.57747 2 
54.280 43.692 8.94288 2.36614 2 
55.925 43.692 12.44743 3.79671 2 
57.570 43.692 7.26182 1.43778 2 
59.215 43.692 11.70586 -0.61655 2 
60.860 43.692 13.97624 -0.65061 2 
62.505 43.692 9.20967 -2.15979 2 
64.150 43.692 14.89897 -0.84327 2 
65.794 43.692 14.79195 3.22232 2 
67.439 43.692 11.88414 4.89935 2 
69.084 43.692 9.94050 0.27066 2 
70.729 43.692 11.81636 -0.70604 2 
72.374 43.692 10.77337 3.95338 2 
74.019 43.692 9.91882 0.32351 2 
75.664 43.692 9.88520 -1.53709 2 
77.308 43.692 12.40898 5.48369 2 
78.953 43.692 14.68951 -1.58756 2 
80.598 43.692 13.71731 -2.14741 2 
82.243 43.692 9.46651 0.29864 2 
83.888 43.692 10.80087 -0.56673 2 
85.533 43.692 13.76884 0.64086 2 
87.178 43.692 8.65502 4.80258 2 
88.822 43.692 10.06554 5.37507 2 
90.467 43.692 8.88387 2.69187 2 
92.112 43.692 11.15664 2.84528 2 
93.757 43.692 16.55388 2.31138 2 
95.402 43.692 12.26427 -1.34483 2 
97.047 43.692 17.37344 1.36981 2 
98.692 43.692 9.91150 0.85423 2 
100.336 43.692 12.98360 0.89784 2 
101.981 43.692 10.85257 3.62360 2 
103.626 43.692 0.00000 -0.00000 0 
105.271 43.692 0.00000 -0.00000 0 
106.916 43.692 9.39398 -2.10034 2 
108.561 43.692 14.83857 2.93974 2 
110.206 43.692 13.18826 3.27415 2 
111.850 43.692 13.60122 0.10821 2 
113.495 43.692 12.90642 0.17771 2 
115.140 43.692 12.25973 1.49492 2 
116.785 43.692 12.53093 -1.34314 2 
118.430 43.692 11.90068 -0.20832 2 
120.075 43.692 11.89485 1.05381 2 
121.720 43.692 10.02315 1.15373 2 
123.364 43.692 15.06709 -0.27720 2 
125.009 43.692 12.91864 -0.88010 2 
126.654 43.692 10.55487 0.05893 2 
128.299 43.692 11.05897 -0.45385 2 
129.944 43.692 14.16565 1.54349 2 
131.589 43.692 14.83905 -0.60361 2 
133.234 43.692 12.06654 -2.42738 2 
134.879 43.692 12.19267 -2.93513 2 
136.523 43.692 10.57563 -1.05913 2 
138.168 43.692 15.55825 0.81254 2 
139.813 43.692 14.65781 1.88058 2 
141.458 43.692 11.16844 0.69493 2 
143.103 43.692 10.18448 -1.24719 2 
144.748 43.692 12.71183 -0.71537 2 
146.393 43.692 15.44768 -1.66778 2 
148.037 43.692 15.45470 0.22343 2 
149.682 43.692 8.42209 2.39047 2 
151.327 43.692 12.85019 2.95886 2 
152.972 43.692 3.92778 -0.43999 2 
-13.159 42.047 6.19744 1.02058 2 
-11.514 42.047 11.32048 2.10421 2 
-9.869 42.047 10.11105 -0.63008 2 
-8.224 42.047 13.26575 -1.79623 2 
-6.579 42.047 11.70889 -0.05994 2 
-4.935 42.047 10.27980 1.81767 2 
-3.290 42.047 12.98821 -0.64148 2 
-1.645 42.047 10.19029 -1.18443 2 
0.000 42.047 9.10437 1.87261 2 
1.645 42.047 12.00683 2.55233 2 
3.290 42.047 15.12483 3.35753 2 
4.935 42.047 0.00000 -0.00000 0 
6.579 42.047 0.00000 -0.00000 0 
8.224 42.047 0.00000 -0.00000 0 
9.869 42.047 0.00000 -0.00000 0 
11.514 42.047 0.00000 -0.00000 0 
13.159 42.047 0.00000 -0.00000 0 
14.804 42.047 0.00000 -0.00000 0 
16.449 42.047 0.00000 -0.00000 0 
18.093 42.047 0.00000 -0.00000 0 
19.738 42.047 0.00000 -0.00000 0 
21.383 42.047 0.00000 -0.00000 0 
23.028 42.047 10.13499 4.23724 2 
24.673 42.047 13.55001 0.84651 2 
26.318 42.047 9.52350 2.96026 2 
27.963 42.047 12.45757 2.02064 2 
29.607 42.047 8.23601 3.27086 2 
31.252 42.047 11.03100 2.32637 2 
32.897 42.047 11.86469 1.55914 2 
34.542 42.047 9.03388 0.71522 2 
36.187 42.047 12.74101 0.03007 2 
37.832 42.047 12.71682 -1.91695 2 
39.477 42.047 9.60683 2.32535 2 
41.121 42.047 11.31975 1.99551 2 
42.766 42.047 11.77282 2.24613 2 
44.411 42.047 12.82063 3.89578 2 
46.056 42.047 8.35808 5.42584 2 
47.701 42.047 10.73478 4.40000 2 
49.346 42.047 15.34657 0.69197 2 
50.991 42.047 14.17832 0.08113 2 
52.636 42.047 10.60459 -0.06165 2 
54.280 42.047 10.15821 -0.94626 2 
55.925 42.047 11.29153 3.46902 2 
57.570 42.047 9.31701 4.67152 2 
59.215 42.047 9.06241 0.78482 2 
60.860 42.047 10.04099 -2.06979 2 
62.505 42.047 10.56397 -3.76875 2 
64.150 42.047 9.51759 0.64628 2 
65.794 42.047 12.87313 3.48584 2 
67.439 42.047 12.66996 4.27901 2 
69.084 42.047 10.40561 1.52875 2 
70.729 42.047 10.82434 0.13646 2 
72.374 42.047 9.35965 4.51717 2 
74.019 42.047 11.51940 2.70570 2 
75.664 42.047 9.00859 2.95823 2 
77.308 42.047 10.53444 4.97492 2 
78.953 42.047 10.15999 -0.91143 2 
80.598 42.047 9.96656 -2.38091 2 
82.243 42.047 9.43972 -0.25113 2 
83.888 42.047 12.49924 -0.28592 2 
85.533 42.047 11.71092 0.13345 2 
87.178 42.047 10.33968 0.38401 2 
88.822 42.047 9.93940 2.98832 2 
90.467 42.047 8.10601 1.75478 2 
92.112 42.047 10.14944 4.74284 2 
93.757 42.047 13.58543 5.67171 2 
95.402 42.047 9.65831 -3.09886 2 
97.047 42.047 11.68035 -3.58174 2 
98.692 42.047 10.76279 -1.59076 2 
100.336 42.047 12.46516 -0.85810 2 
101.981 42.047 11.11521 3.68160 2 
103.626 42.047 0.00000 -0.00000 0 
105.271 42.047 0.00000 -0.00000 0 
106.916 42.047 12.42007 1.57902 2 
108.561 42.047 13.24304 3.68154 2 
110.206 42.047 12.06682 1.27981 2 
111.850 42.047 15.21394 -1.42430 2 
113.495 42.047 13.10502 -1.65965 2 
115.140 42.047 12.78930 -2.35385 2 
116.785 42.047 11.41606 0.69816 2 
118.430 42.047 12.37954 -0.07582 2 
120.075 42.047 10.77378 -4.11793 2 
121.720 42.047 8.93545 0.75030 2 
123.364 42.047 13.38942 -1.21914 2 
125.009 42.047 12.55570 -0.32434 2 
126.654 42.047 10.48622 2.11591 2 
128.299 42.047 11.67888 -3.36207 2 
129.944 42.047 13.43507 -0.67505 2 
131.589 42.047 13.08608 0.99378 2 
133.234 42.047 12.33946 -0.07824 2 
134.879 42.047 11.47358 -2.40479 2 
136.523 42.047 12.07409 -0.83658 2 
138.168 42.047 15.56118 -0.10059 2 
139.813 42.047 11.97425 1.98647 2 
141.458 42.047 10.61364 -0.59156 2 
143.103 42.047 10.07514 -2.15124 2 
144.748 42.047 11.42749 -1.66041 2 
146.393 42.047 12.61389 -3.38004 2 
148.037 42.047 13.71353 -1.24235 2 
149.682 42.047 9.09597 -1.26065 2 
151.327 42.047 13.86030 -3.08894 2 
152.972 42.047 6.19689 -0.91542 2 
-13.159 40.402 8.22412 1.52972 2 
-11.514 40.402 10.63772 0.35007 2 
-9.869 40.402 8.62628 -2.01476 2 
-8.224 40.402 11.52165 -0.83429 2 
-6.579 40.402 10.50609 -1.00684 2 
-4.935 40.402 9.40767 3.40435 2 
-3.290 40.402 11.26065 -3.66449 2 
-1.645 40.402 10.44997 1.68847 2 
0.000 40.402 8.01539 3.28256 2 
1.645 40.402 9.73528 1.66309 2 
3.290 40.402 15.93215 1.26692 2 
4.935 40.402 0.00000 -0.00000 0 
6.579 40.402 0.00000 -0.00000 0 
8.224 40.402 0.00000 -0.00000 0 
9.869 40.402 0.00000 -0.00000 0 
11.514 40.402 0.00000 -0.00000 0 
13.159 40.402 0.00000 -0.00000 0 
14.804 40.402 0.00000 -0.00000 0 
16.449 40.402 0.00000 -0.00000 0 
18.093 40.402 0.00000 -0.00000 0 
19.738 40.402 0.00000 -0.00000 0 
21.383 40.402 0.00000 -0.00000 0 
23.028 40.402 11.00072 4.13899 2 
24.673 40.402 8.99450 -0.59336 2 
26.318 40.402 10.48612 4.24055 2 
27.963 40.402 11.50147 1.07254 2 
29.607 40.402 7.36738 0.99318 2 
31.252 40.402 8.80942 5.13201 2 
32.897 40.402 10.98290 3.09891 2 
34.542 40.402 8.70257 0.65111 2 
36.187 40.402 11.26669 2.21355 2 
37.832 40.402 11.62001 -1.20162 2 
39.477 40.402 8.71731 -1.35234 2 
41.121 40.402 9.27921 0.61497 2 
42.766 40.402 12.54171 -0.89547 2 
44.411 40.402 14.11380 2.51911 2 
46.056 40.402 10.28704 5.47679 2 
47.701 40.402 11.20739 3.24333 2 
49.346 40.402 15.39381 1.25936 2 
50.991 40.402 11.23951 1.69943 2 
52.636 40.402 8.73457 2.71926 2 
54.280 40.402 10.29974 2.76650 2 
55.925 40.402 9.55076 0.88986 2 
57.570 40.402 11.30052 3.20688 2 
59.215 40.402 11.17311 7.13664 2 
60.860 40.402 10.75086 2.60984 2 
62.505 40.402 11.98618 -1.24237 2 
64.150 40.402 7.91240 -0.77700 2 
65.794 40.402 9.84916 0.70978 2 
67.439 40.402 13.07733 2.43332 2 
69.084 40.402 9.43512 2.28681 2 
70.729 40.402 9.85621 1.16495 2 
72.374 40.402 10.06342 5.13381 2 
74.019 40.402 13.49791 6.65116 2 