TITLE = "B00007"
VARIABLES = "X [mm]", "Y [mm]", "Vx [m/s]", "Vy [m/s]", "Flag"
ZONE T="Frame 1", I=102, J=77, F=POINT
-13.159 53.561 5.12230 0.38005 2 
-11.514 53.561 10.62114 1.38727 2 
-9.869 53.561 10.97919 0.06436 2 
-8.224 53.561 8.87736 1.22610 2 
-6.579 53.561 10.57836 1.33500 2 
-4.935 53.561 12.58841 1.21313 2 
-3.290 53.561 10.25485 -0.13391 2 
-1.645 53.561 10.10544 -0.05470 2 
0.000 53.561 12.23676 -0.95289 2 
1.645 53.561 11.90950 -0.44175 2 
3.290 53.561 0.00000 -0.00000 0 
4.935 53.561 0.00000 -0.00000 0 
6.579 53.561 0.00000 -0.00000 0 
8.224 53.561 0.00000 -0.00000 0 
9.869 53.561 0.00000 -0.00000 0 
11.514 53.561 0.00000 -0.00000 0 
13.159 53.561 0.00000 -0.00000 0 
14.804 53.561 0.00000 -0.00000 0 
16.449 53.561 0.00000 -0.00000 0 
18.093 53.561 0.00000 -0.00000 0 
19.738 53.561 0.00000 -0.00000 0 
21.383 53.561 0.00000 -0.00000 0 
23.028 53.561 3.67462 -1.98147 2 
24.673 53.561 17.79535 -0.15064 2 
26.318 53.561 14.67520 1.14226 2 
27.963 53.561 12.27829 -2.29205 2 
29.607 53.561 12.54477 -1.36997 2 
31.252 53.561 8.65496 -1.41248 2 
32.897 53.561 8.01907 -0.04310 2 
34.542 53.561 12.01804 0.42631 2 
36.187 53.561 12.98352 0.17887 2 
37.832 53.561 11.02347 -0.44387 2 
39.477 53.561 9.69726 0.14011 2 
41.121 53.561 8.31997 2.29390 2 
42.766 53.561 9.50829 1.58428 2 
44.411 53.561 10.50677 1.40282 2 
46.056 53.561 8.99818 0.79760 2 
47.701 53.561 14.14173 0.60321 2 
49.346 53.561 9.52989 -0.12495 2 
50.991 53.561 10.92630 -0.98244 2 
52.636 53.561 10.31519 0.29936 2 
54.280 53.561 10.30947 0.60429 2 
55.925 53.561 9.68260 0.74933 2 
57.570 53.561 9.73588 1.39433 2 
59.215 53.561 12.17259 0.95786 2 
60.860 53.561 14.67706 2.23094 2 
62.505 53.561 14.21392 -1.15168 2 
64.150 53.561 13.09961 -4.25771 2 
65.794 53.561 13.42153 0.22002 2 
67.439 53.561 10.57640 -1.66940 2 
69.084 53.561 10.21141 0.36059 2 
70.729 53.561 11.35804 1.16226 2 
72.374 53.561 13.46176 2.64422 2 
74.019 53.561 12.16716 1.55914 2 
75.664 53.561 13.69949 -0.23353 2 
77.308 53.561 13.03075 2.21032 2 
78.953 53.561 11.13588 0.85051 2 
80.598 53.561 10.64985 1.03601 2 
82.243 53.561 13.13570 2.58507 2 
83.888 53.561 13.26330 1.49415 2 
85.533 53.561 11.03032 2.77357 2 
87.178 53.561 11.76440 2.26480 2 
88.822 53.561 12.72834 -0.81657 2 
90.467 53.561 10.45169 0.44408 2 
92.112 53.561 10.89501 -2.90583 2 
93.757 53.561 12.89111 -0.56373 2 
95.402 53.561 12.00942 0.75641 2 
97.047 53.561 9.35433 0.32132 2 
98.692 53.561 13.76403 1.08082 2 
100.336 53.561 15.32006 0.98497 2 
101.981 53.561 0.00000 -0.00000 0 
103.626 53.561 0.00000 -0.00000 0 
105.271 53.561 0.00000 -0.00000 0 
106.916 53.561 11.96628 0.93610 2 
108.561 53.561 17.79608 -0.53634 2 
110.206 53.561 13.88123 0.55541 2 
111.850 53.561 11.91494 1.31155 2 
113.495 53.561 11.18502 2.32170 2 
115.140 53.561 13.09117 -0.67271 2 
116.785 53.561 12.57696 -1.21535 2 
118.430 53.561 12.33928 0.84792 2 
120.075 53.561 14.98132 1.15295 2 
121.720 53.561 13.99636 1.52577 2 
123.364 53.561 8.80829 3.76574 2 
125.009 53.561 12.82217 1.93554 2 
126.654 53.561 12.32262 -0.67991 2 
128.299 53.561 11.09885 0.28719 2 
129.944 53.561 12.48391 1.64804 2 
131.589 53.561 15.28364 0.03238 2 
133.234 53.561 13.51478 1.48188 2 
134.879 53.561 12.61351 2.27300 2 
136.523 53.561 12.83489 0.46761 2 
138.168 53.561 8.42144 2.06465 2 
139.813 53.561 10.57755 1.79413 2 
141.458 53.561 13.33814 2.49247 2 
143.103 53.561 11.77592 3.10730 2 
144.748 53.561 9.56530 -1.08453 2 
146.393 53.561 11.05652 -0.91445 2 
148.037 53.561 14.04615 -1.86751 2 
149.682 53.561 12.33490 -4.20896 2 
151.327 53.561 17.74794 -2.56334 2 
152.972 53.561 0.00000 -0.00000 0 
-13.159 51.916 7.72037 0.99892 2 
-11.514 51.916 10.56363 0.14826 2 
-9.869 51.916 9.17689 0.95045 2 
-8.224 51.916 9.40409 1.56984 2 
-6.579 51.916 11.27120 3.18489 2 
-4.935 51.916 10.07909 3.59222 2 
-3.290 51.916 9.27262 0.62372 2 
-1.645 51.916 10.88483 1.20500 2 
0.000 51.916 13.92593 2.25389 2 
1.645 51.916 15.58642 2.69751 2 
3.290 51.916 0.00000 -0.00000 0 
4.935 51.916 0.00000 -0.00000 0 
6.579 51.916 0.00000 -0.00000 0 
8.224 51.916 0.00000 -0.00000 0 
9.869 51.916 0.00000 -0.00000 0 
11.514 51.916 0.00000 -0.00000 0 
13.159 51.916 0.00000 -0.00000 0 
14.804 51.916 0.00000 -0.00000 0 
16.449 51.916 0.00000 -0.00000 0 
18.093 51.916 0.00000 -0.00000 0 
19.738 51.916 0.00000 -0.00000 0 
21.383 51.916 0.00000 -0.00000 0 
23.028 51.916 8.37133 2.56666 2 
24.673 51.916 14.82122 0.33051 2 
26.318 51.916 12.22846 2.74412 2 
27.963 51.916 13.26852 -0.10475 2 
29.607 51.916 14.73972 -0.11393 2 
31.252 51.916 11.50880 1.52664 2 
32.897 51.916 11.02463 0.83233 2 
34.542 51.916 12.79831 0.71332 2 
36.187 51.916 11.67526 1.54241 2 
37.832 51.916 11.62174 0.02524 2 
39.477 51.916 10.94221 -0.88702 2 
41.121 51.916 10.27356 2.70044 2 
42.766 51.916 11.84144 1.03138 2 
44.411 51.916 10.71433 2.17386 2 
46.056 51.916 8.29798 2.27371 2 
47.701 51.916 11.07610 1.66922 2 
49.346 51.916 12.61258 0.66267 2 
50.991 51.916 10.86803 -1.17651 2 
52.636 51.916 6.63113 2.34841 2 
54.280 51.916 8.58710 3.06677 2 
55.925 51.916 12.89487 3.45868 2 
57.570 51.916 12.63838 0.90559 2 
59.215 51.916 8.89693 0.58337 2 
60.860 51.916 9.97116 0.74223 2 
62.505 51.916 8.27307 -1.19697 2 
64.150 51.916 8.11570 0.70292 2 
65.794 51.916 15.32957 3.09314 2 
67.439 51.916 12.46010 0.41025 2 
69.084 51.916 11.64734 0.71281 2 
70.729 51.916 13.55649 1.64147 2 
72.374 51.916 13.70849 6.12002 2 
74.019 51.916 12.87625 5.80725 2 
75.664 51.916 11.07849 0.44179 2 
77.308 51.916 11.98211 1.16556 2 
78.953 51.916 11.37208 1.77469 2 
80.598 51.916 15.51150 0.55462 2 
82.243 51.916 12.69160 0.76468 2 
83.888 51.916 11.92304 3.97875 2 
85.533 51.916 11.05941 2.22674 2 
87.178 51.916 14.14272 2.35093 2 
88.822 51.916 11.53307 -1.29372 2 
90.467 51.916 11.51002 -0.49583 2 
92.112 51.916 11.36476 -0.51457 2 
93.757 51.916 5.94664 1.30652 2 
95.402 51.916 9.76290 2.11060 2 
97.047 51.916 11.14317 1.25255 2 
98.692 51.916 12.01639 1.66963 2 
100.336 51.916 15.51324 -0.47566 2 
101.981 51.916 0.00000 -0.00000 0 
103.626 51.916 0.00000 -0.00000 0 
105.271 51.916 0.00000 -0.00000 0 
106.916 51.916 11.45179 1.76866 2 
108.561 51.916 17.01184 -0.20947 2 
110.206 51.916 12.48937 -1.34307 2 
111.850 51.916 13.45351 2.30140 2 
113.495 51.916 8.73425 -1.26004 2 
115.140 51.916 11.97801 -0.91894 2 
116.785 51.916 15.16369 0.67473 2 
118.430 51.916 13.59482 -0.12397 2 
120.075 51.916 14.45588 1.56804 2 
121.720 51.916 11.90699 2.67256 2 
123.364 51.916 9.14603 4.30418 2 
125.009 51.916 12.58849 2.90107 2 
126.654 51.916 12.31505 3.00896 2 
128.299 51.916 12.13285 4.56983 2 
129.944 51.916 10.48266 4.31690 2 
131.589 51.916 11.93383 0.60605 2 
133.234 51.916 11.83742 0.48103 2 
134.879 51.916 10.80322 2.87843 2 
136.523 51.916 14.46454 1.55288 2 
138.168 51.916 10.68964 -0.20979 2 
139.813 51.916 10.83118 0.26432 2 
141.458 51.916 11.54696 3.38849 2 
143.103 51.916 12.40529 2.26504 2 
144.748 51.916 12.88248 -2.21299 2 
146.393 51.916 13.21918 -0.89492 2 
148.037 51.916 12.08580 -0.54331 2 
149.682 51.916 12.34701 -3.36778 2 
151.327 51.916 17.12196 -4.31974 2 
152.972 51.916 4.15800 -3.22606 2 
-13.159 50.271 8.68969 3.71378 2 
-11.514 50.271 11.10603 -0.08038 2 
-9.869 50.271 9.25666 -1.11585 2 
-8.224 50.271 13.16987 0.75401 2 
-6.579 50.271 13.39894 -0.75475 2 
-4.935 50.271 8.32552 0.55063 2 
-3.290 50.271 9.47121 1.55004 2 
-1.645 50.271 10.88061 -0.61976 2 
0.000 50.271 11.34419 -0.04700 2 
1.645 50.271 12.58867 2.73488 2 
3.290 50.271 0.00000 -0.00000 0 
4.935 50.271 0.00000 -0.00000 0 
6.579 50.271 0.00000 -0.00000 0 
8.224 50.271 0.00000 -0.00000 0 
9.869 50.271 0.00000 -0.00000 0 
11.514 50.271 0.00000 -0.00000 0 
13.159 50.271 0.00000 -0.00000 0 
14.804 50.271 0.00000 -0.00000 0 
16.449 50.271 0.00000 -0.00000 0 
18.093 50.271 0.00000 -0.00000 0 
19.738 50.271 0.00000 -0.00000 0 
21.383 50.271 0.00000 -0.00000 0 
23.028 50.271 2.14403 2.76321 2 
24.673 50.271 12.36291 3.84079 2 
26.318 50.271 9.38733 -0.57379 2 
27.963 50.271 11.52165 2.36216 2 
29.607 50.271 12.84037 2.37443 2 
31.252 50.271 12.79338 1.89372 2 
32.897 50.271 10.85720 1.85650 2 
34.542 50.271 10.59413 3.00291 2 
36.187 50.271 11.77956 2.90919 2 
37.832 50.271 11.76984 0.00859 2 
39.477 50.271 10.28233 -0.90030 2 
41.121 50.271 9.82461 -1.37562 2 
42.766 50.271 14.09962 -1.60070 2 
44.411 50.271 11.91903 0.97676 2 
46.056 50.271 7.59648 2.77214 2 
47.701 50.271 8.03651 3.76644 2 
49.346 50.271 15.53016 1.29141 2 
50.991 50.271 13.40059 -0.24514 2 
52.636 50.271 9.64104 2.71616 2 
54.280 50.271 13.02861 1.45515 2 
55.925 50.271 14.75936 2.79737 2 
57.570 50.271 13.21068 3.66052 2 
59.215 50.271 8.13556 6.16142 2 
60.860 50.271 9.69912 0.67139 2 
62.505 50.271 9.55262 -4.02988 2 
64.150 50.271 7.10315 -0.02247 2 
65.794 50.271 13.01491 3.68814 2 
67.439 50.271 14.26694 3.96141 2 
69.084 50.271 13.74893 0.54193 2 
70.729 50.271 11.91960 1.92184 2 
72.374 50.271 13.38732 1.29510 2 
74.019 50.271 16.72462 1.15575 2 
75.664 50.271 11.71085 1.90772 2 
77.308 50.271 9.87352 -1.00897 2 
78.953 50.271 11.80705 0.83133 2 
80.598 50.271 14.89703 1.66792 2 
82.243 50.271 12.24750 -1.05571 2 
83.888 50.271 13.13414 -0.67064 2 
85.533 50.271 12.42556 -2.17635 2 
87.178 50.271 11.51422 -2.62466 2 
88.822 50.271 10.74561 2.21039 2 
90.467 50.271 9.77358 3.78653 2 
92.112 50.271 10.95723 -0.75809 2 
93.757 50.271 8.17980 -0.43211 2 
95.402 50.271 9.97931 -0.15040 2 
97.047 50.271 12.24866 0.98302 2 
98.692 50.271 10.60730 1.28890 2 
100.336 50.271 15.70642 -1.93629 2 
101.981 50.271 0.00000 -0.00000 0 
103.626 50.271 0.00000 -0.00000 0 
105.271 50.271 0.00000 -0.00000 0 
106.916 50.271 11.71036 2.87945 2 
108.561 50.271 15.70182 3.28156 2 
110.206 50.271 12.77166 2.11052 2 
111.850 50.271 13.73677 -0.23073 2 
113.495 50.271 9.80463 -0.31843 2 
115.140 50.271 9.26782 3.02185 2 
116.785 50.271 12.49002 1.54930 2 
118.430 50.271 13.05428 -1.66103 2 
120.075 50.271 10.82826 1.20545 2 
121.720 50.271 11.11462 2.90889 2 
123.364 50.271 13.04559 -2.81588 2 
125.009 50.271 13.01165 -0.03631 2 
126.654 50.271 13.68080 4.19417 2 
128.299 50.271 16.14326 2.77972 2 
129.944 50.271 8.19988 3.33816 2 
131.589 50.271 10.45586 0.78255 2 
133.234 50.271 13.65298 -1.83771 2 
134.879 50.271 15.52936 -1.13389 2 
136.523 50.271 14.00742 0.87829 2 
138.168 50.271 11.78433 -0.86323 2 
139.813 50.271 14.08525 -3.72562 2 
141.458 50.271 11.68899 -1.14015 2 
143.103 50.271 12.55725 0.48368 2 
144.748 50.271 12.72702 -3.65429 2 
146.393 50.271 13.11519 2.33054 2 
148.037 50.271 13.60754 1.84793 2 
149.682 50.271 14.55557 1.58176 2 
151.327 50.271 13.55089 -0.55462 2 
152.972 50.271 4.85275 -4.42814 2 
-13.159 48.626 5.52555 0.41016 2 
-11.514 48.626 12.27478 0.05110 2 
-9.869 48.626 11.02493 -0.80975 2 
-8.224 48.626 10.68884 -0.95649 2 
-6.579 48.626 9.21389 1.80961 2 
-4.935 48.626 11.24574 0.83455 2 
-3.290 48.626 11.09804 1.36833 2 
-1.645 48.626 11.13595 -0.06903 2 
0.000 48.626 8.30008 0.33339 2 
1.645 48.626 13.76936 0.51060 2 
3.290 48.626 0.00000 -0.00000 0 
4.935 48.626 0.00000 -0.00000 0 
6.579 48.626 0.00000 -0.00000 0 
8.224 48.626 0.00000 -0.00000 0 
9.869 48.626 0.00000 -0.00000 0 
11.514 48.626 0.00000 -0.00000 0 
13.159 48.626 0.00000 -0.00000 0 
14.804 48.626 0.00000 -0.00000 0 
16.449 48.626 0.00000 -0.00000 0 
18.093 48.626 0.00000 -0.00000 0 
19.738 48.626 0.00000 -0.00000 0 
21.383 48.626 0.00000 -0.00000 0 
23.028 48.626 7.36379 1.14517 2 
24.673 48.626 14.72758 2.29034 2 
26.318 48.626 11.78492 -0.62714 2 
27.963 48.626 11.62788 2.61944 2 
29.607 48.626 12.77862 0.60155 2 
31.252 48.626 11.14068 0.91104 2 
32.897 48.626 9.82497 0.02853 2 
34.542 48.626 9.18673 -1.82260 2 
36.187 48.626 10.97535 -0.72230 2 
37.832 48.626 9.38316 2.69957 2 
39.477 48.626 10.55720 3.74050 2 
41.121 48.626 9.74103 2.44976 2 
42.766 48.626 10.49239 -0.54141 2 
44.411 48.626 9.39547 -0.27627 2 
46.056 48.626 10.68251 2.33131 2 
47.701 48.626 8.08785 5.39577 2 
49.346 48.626 8.94719 1.89678 2 
50.991 48.626 11.57136 -1.06123 2 
52.636 48.626 12.31757 1.44025 2 
54.280 48.626 14.02952 1.43726 2 
55.925 48.626 12.24295 3.61579 2 
57.570 48.626 9.43503 4.34663 2 
59.215 48.626 8.66405 1.84589 2 
60.860 48.626 11.08044 -0.02267 2 
62.505 48.626 13.11223 -3.46354 2 
64.150 48.626 9.91039 2.60498 2 
65.794 48.626 10.70026 4.28315 2 
67.439 48.626 9.18219 0.18843 2 
69.084 48.626 7.49237 -1.47861 2 
70.729 48.626 9.56831 2.09737 2 
72.374 48.626 10.66542 5.23084 2 
74.019 48.626 13.71028 4.91531 2 
75.664 48.626 13.45963 0.45833 2 
77.308 48.626 13.24552 -0.55516 2 
78.953 48.626 11.31103 1.81731 2 
80.598 48.626 10.00315 0.75473 2 
82.243 48.626 11.24695 -2.06623 2 
83.888 48.626 12.96639 1.88657 2 
85.533 48.626 8.72900 0.84921 2 
87.178 48.626 9.00379 -2.30469 2 
88.822 48.626 10.61083 4.83211 2 
90.467 48.626 10.09089 4.67524 2 
92.112 48.626 9.76801 4.28799 2 
93.757 48.626 12.00408 4.51965 2 
95.402 48.626 11.88805 1.72084 2 
97.047 48.626 11.60239 -0.05628 2 
98.692 48.626 9.63800 -0.19847 2 
100.336 48.626 13.26969 -0.47607 2 
101.981 48.626 0.00000 -0.00000 0 
103.626 48.626 0.00000 -0.00000 0 
105.271 48.626 0.00000 -0.00000 0 
106.916 48.626 8.63745 1.68461 2 
108.561 48.626 11.52656 1.49460 2 
110.206 48.626 12.75950 1.45789 2 
111.850 48.626 12.91291 2.43119 2 
113.495 48.626 10.87502 0.62318 2 
115.140 48.626 12.78627 -1.24668 2 
116.785 48.626 10.54649 1.62764 2 
118.430 48.626 13.95644 -0.82863 2 
120.075 48.626 12.04128 -2.87117 2 
121.720 48.626 11.26049 -0.59845 2 
123.364 48.626 12.67518 -2.16280 2 
125.009 48.626 13.23492 -0.99110 2 
126.654 48.626 10.67728 2.41536 2 
128.299 48.626 16.06920 -0.21587 2 
129.944 48.626 10.98676 -0.82479 2 
131.589 48.626 10.21519 -2.70874 2 
133.234 48.626 14.68973 -3.53008 2 
134.879 48.626 17.37183 1.25867 2 
136.523 48.626 11.13592 -0.90906 2 
138.168 48.626 11.83410 -1.44725 2 
139.813 48.626 14.66406 2.09473 2 
141.458 48.626 13.40888 1.54510 2 
143.103 48.626 12.70922 -1.29768 2 
144.748 48.626 14.58872 -3.03203 2 
146.393 48.626 12.68828 0.90843 2 
148.037 48.626 13.77952 1.75035 2 
149.682 48.626 9.90072 3.28210 2 
151.327 48.626 11.48173 3.45569 2 
152.972 48.626 6.13931 -3.05909 2 
-13.159 46.981 5.97841 -3.40317 2 
-11.514 46.981 13.84226 -0.59978 2 
-9.869 46.981 12.20560 0.66009 2 
-8.224 46.981 10.25175 -3.44761 2 
-6.579 46.981 6.52522 -1.01197 2 
-4.935 46.981 11.20300 2.68124 2 
-3.290 46.981 11.42800 1.21960 2 
-1.645 46.981 11.66633 -3.51808 2 
0.000 46.981 7.62811 2.08370 2 
1.645 46.981 14.00458 2.21299 2 
3.290 46.981 0.00000 -0.00000 0 
4.935 46.981 0.00000 -0.00000 0 
6.579 46.981 0.00000 -0.00000 0 
8.224 46.981 0.00000 -0.00000 0 
9.869 46.981 0.00000 -0.00000 0 
11.514 46.981 0.00000 -0.00000 0 
13.159 46.981 0.00000 -0.00000 0 
14.804 46.981 0.00000 -0.00000 0 
16.449 46.981 0.00000 -0.00000 0 
18.093 46.981 0.00000 -0.00000 0 
19.738 46.981 0.00000 -0.00000 0 
21.383 46.981 0.00000 -0.00000 0 
23.028 46.981 6.51001 1.05319 2 
24.673 46.981 13.02001 2.10638 2 
26.318 46.981 9.93146 1.18337 2 
27.963 46.981 13.71841 3.55420 2 
29.607 46.981 10.98865 -1.36350 2 
31.252 46.981 7.06299 3.21341 2 
32.897 46.981 12.15283 3.35355 2 
34.542 46.981 12.14620 -0.03913 2 
36.187 46.981 10.90242 1.92907 2 
37.832 46.981 9.87318 2.89488 2 
39.477 46.981 11.22964 2.87472 2 
41.121 46.981 11.53502 7.64189 2 
42.766 46.981 11.90327 5.61649 2 
44.411 46.981 9.64940 1.89132 2 
46.056 46.981 11.81258 0.38696 2 
47.701 46.981 11.50201 5.46909 2 
49.346 46.981 11.02058 4.25179 2 
50.991 46.981 12.12427 -0.64834 2 
52.636 46.981 8.89310 1.53131 2 
54.280 46.981 11.37424 1.52216 2 
55.925 46.981 10.04046 4.04294 2 
57.570 46.981 9.72548 4.78091 2 
59.215 46.981 10.37334 0.14761 2 
60.860 46.981 9.42895 -3.84430 2 
62.505 46.981 10.26964 -2.29238 2 
64.150 46.981 9.80630 2.75792 2 
65.794 46.981 11.74153 2.96483 2 
67.439 46.981 11.27404 -0.84397 2 
69.084 46.981 11.16693 -0.62992 2 
70.729 46.981 11.23695 1.26252 2 
72.374 46.981 10.82403 2.17101 2 
74.019 46.981 8.10703 0.71232 2 
75.664 46.981 10.20577 -1.03326 2 
77.308 46.981 15.28928 2.00171 2 
78.953 46.981 12.97247 3.08953 2 
80.598 46.981 10.06536 -2.35765 2 
82.243 46.981 9.98220 -3.07367 2 
83.888 46.981 7.78489 1.81733 2 
85.533 46.981 9.54952 -0.13786 2 
87.178 46.981 15.64128 -2.80004 2 
88.822 46.981 13.94703 1.02286 2 
90.467 46.981 12.16652 1.92518 2 
92.112 46.981 11.01080 7.26784 2 
93.757 46.981 10.59002 5.36009 2 
95.402 46.981 11.58737 -1.82607 2 
97.047 46.981 12.00424 5.18855 2 
98.692 46.981 10.30895 4.15251 2 
100.336 46.981 12.70497 0.73020 2 
101.981 46.981 0.00000 -0.00000 0 
103.626 46.981 0.00000 -0.00000 0 
105.271 46.981 0.00000 -0.00000 0 
106.916 46.981 9.90510 -0.64821 2 
108.561 46.981 11.94507 -1.49552 2 
110.206 46.981 12.06919 0.59469 2 
111.850 46.981 14.78136 1.71365 2 
113.495 46.981 13.56996 1.18995 2 
115.140 46.981 11.68222 -0.73836 2 
116.785 46.981 11.96340 -1.44780 2 
118.430 46.981 12.21299 -1.94019 2 
120.075 46.981 13.35015 -1.97269 2 
121.720 46.981 9.46757 0.84494 2 
123.364 46.981 9.06747 0.37978 2 
125.009 46.981 13.27022 -1.27752 2 
126.654 46.981 11.04011 1.12977 2 
128.299 46.981 10.33451 -1.88467 2 
129.944 46.981 9.83403 -0.57415 2 
131.589 46.981 10.53844 -1.03643 2 
133.234 46.981 13.54130 -4.09203 2 
134.879 46.981 14.45485 1.62888 2 
136.523 46.981 11.42498 0.75676 2 
138.168 46.981 14.84561 -2.72263 2 
139.813 46.981 15.39728 1.73755 2 
141.458 46.981 12.79380 2.33571 2 
143.103 46.981 16.84572 0.49419 2 
144.748 46.981 13.16432 -0.97527 2 
146.393 46.981 13.56199 -2.24642 2 
148.037 46.981 11.98543 -0.08429 2 
149.682 46.981 10.23684 1.31026 2 
151.327 46.981 16.31032 -0.75209 2 
152.972 46.981 5.32343 -2.46651 2 
-13.159 45.336 5.82976 0.67058 2 
-11.514 45.336 11.79185 1.16272 2 
-9.869 45.336 9.71320 -0.68962 2 
-8.224 45.336 10.60652 -1.92214 2 
-6.579 45.336 11.46796 0.47462 2 
-4.935 45.336 10.55588 1.50343 2 
-3.290 45.336 10.41708 3.35102 2 
-1.645 45.336 11.35184 -0.19975 2 
0.000 45.336 11.53203 -1.80961 2 
1.645 45.336 12.79411 3.75785 2 
3.290 45.336 11.83075 2.52371 2 
4.935 45.336 0.00000 -0.00000 0 
6.579 45.336 0.00000 -0.00000 0 
8.224 45.336 0.00000 -0.00000 0 
9.869 45.336 0.00000 -0.00000 0 
11.514 45.336 0.00000 -0.00000 0 
13.159 45.336 0.00000 -0.00000 0 
14.804 45.336 0.00000 -0.00000 0 
16.449 45.336 0.00000 -0.00000 0 
18.093 45.336 0.00000 -0.00000 0 
19.738 45.336 0.00000 -0.00000 0 
21.383 45.336 0.00000 -0.00000 0 
23.028 45.336 7.46311 0.13348 2 
24.673 45.336 12.68404 0.77345 2 
26.318 45.336 8.72457 3.62024 2 
27.963 45.336 10.69129 4.83285 2 
29.607 45.336 8.78636 0.72308 2 
31.252 45.336 9.34815 2.85791 2 
32.897 45.336 11.69025 1.37379 2 
34.542 45.336 12.02329 -0.91204 2 
36.187 45.336 11.59547 1.02245 2 
37.832 45.336 10.13020 -2.14668 2 
39.477 45.336 7.71680 2.02893 2 
41.121 45.336 6.26666 4.07869 2 
42.766 45.336 12.67095 4.16453 2 
44.411 45.336 10.60413 6.33361 2 
46.056 45.336 10.09836 0.64325 2 
47.701 45.336 13.25018 2.04265 2 
49.346 45.336 10.49824 1.81946 2 
50.991 45.336 12.46014 -0.68775 2 
52.636 45.336 10.14523 -0.45586 2 
54.280 45.336 10.30013 1.48568 2 
55.925 45.336 10.50151 5.30492 2 
57.570 45.336 13.68185 4.20769 2 
59.215 45.336 6.97055 3.20970 2 
60.860 45.336 8.31332 1.06448 2 
62.505 45.336 11.47525 1.35812 2 
64.150 45.336 15.07140 1.76886 2 
65.794 45.336 12.94305 4.10474 2 
67.439 45.336 13.14712 2.29961 2 
69.084 45.336 13.66377 2.04439 2 
70.729 45.336 11.16964 3.50434 2 
72.374 45.336 12.20871 -1.40375 2 
74.019 45.336 10.93314 -2.45732 2 
75.664 45.336 9.93955 0.74176 2 
77.308 45.336 14.12446 2.45628 2 
78.953 45.336 15.81750 5.10376 2 
80.598 45.336 12.45559 4.07264 2 
82.243 45.336 9.36930 -0.16719 2 
83.888 45.336 7.49946 -1.63446 2 
85.533 45.336 16.21857 2.66484 2 
87.178 45.336 17.51382 -1.05798 2 
88.822 45.336 15.74326 -1.62883 2 
90.467 45.336 10.09653 0.60380 2 
92.112 45.336 10.51117 1.69478 2 
93.757 45.336 10.70554 1.55160 2 
95.402 45.336 13.87979 1.23430 2 
97.047 45.336 10.14157 4.50458 2 
98.692 45.336 9.69852 3.94290 2 
100.336 45.336 12.14024 1.93647 2 
101.981 45.336 8.89993 -0.76119 2 
103.626 45.336 0.00000 -0.00000 0 
105.271 45.336 0.00000 -0.00000 0 
106.916 45.336 11.17275 -2.98103 2 
108.561 45.336 13.37376 -0.28341 2 
110.206 45.336 11.27616 -0.06690 2 
111.850 45.336 13.03409 -0.63829 2 
113.495 45.336 13.03652 1.06451 2 
115.140 45.336 11.62256 1.10155 2 
116.785 45.336 12.81984 -1.70485 2 
118.430 45.336 10.42950 -2.52692 2 
120.075 45.336 10.82921 -2.12440 2 
121.720 45.336 10.80608 2.29447 2 
123.364 45.336 9.57510 0.91471 2 
125.009 45.336 10.62553 0.37191 2 
126.654 45.336 12.61151 1.91447 2 
128.299 45.336 11.45824 -1.70147 2 
129.944 45.336 10.58895 -0.79043 2 
131.589 45.336 12.35420 3.04034 2 
133.234 45.336 11.64656 -0.54596 2 
134.879 45.336 11.11766 -0.24412 2 
136.523 45.336 14.04875 2.20385 2 
138.168 45.336 14.68327 -2.93758 2 
139.813 45.336 12.71135 -3.26936 2 
141.458 45.336 9.39842 -2.19535 2 
143.103 45.336 12.19347 -0.53236 2 
144.748 45.336 12.56298 -0.04028 2 
146.393 45.336 14.87227 -1.17115 2 
148.037 45.336 11.43081 -0.07265 2 
149.682 45.336 12.09377 -0.74975 2 
151.327 45.336 15.21767 -1.52291 2 
152.972 45.336 4.50755 -1.87393 2 
-13.159 43.692 6.72833 2.34870 2 
-11.514 43.692 11.92501 1.25634 2 
-9.869 43.692 8.59443 -1.68942 2 
-8.224 43.692 11.41436 -0.12764 2 
-6.579 43.692 12.67541 2.10586 2 
-4.935 43.692 9.90876 0.32561 2 
-3.290 43.692 10.84147 -0.00034 2 
-1.645 43.692 9.72573 0.54518 2 
0.000 43.692 10.03771 2.41709 2 
1.645 43.692 12.73558 1.67717 2 
3.290 43.692 11.79112 1.55480 2 
4.935 43.692 0.00000 -0.00000 0 
6.579 43.692 0.00000 -0.00000 0 
8.224 43.692 0.00000 -0.00000 0 
9.869 43.692 0.00000 -0.00000 0 
11.514 43.692 0.00000 -0.00000 0 
13.159 43.692 0.00000 -0.00000 0 
14.804 43.692 0.00000 -0.00000 0 
16.449 43.692 0.00000 -0.00000 0 
18.093 43.692 0.00000 -0.00000 0 
19.738 43.692 0.00000 -0.00000 0 
21.383 43.692 0.00000 -0.00000 0 
23.028 43.692 7.67649 4.17099 2 
24.673 43.692 14.29706 1.02761 2 
26.318 43.692 9.89268 3.58601 2 
27.963 43.692 9.87574 3.42449 2 
29.607 43.692 9.16801 1.77014 2 
31.252 43.692 11.04368 -0.90673 2 
32.897 43.692 10.92434 -1.27107 2 
34.542 43.692 9.44687 -1.90944 2 
36.187 43.692 11.16753 1.67078 2 
37.832 43.692 6.89531 3.67177 2 
39.477 43.692 10.48192 2.40350 2 
41.121 43.692 9.28389 2.58467 2 
42.766 43.692 7.97193 2.56678 2 
44.411 43.692 11.41318 4.90917 2 
46.056 43.692 10.88119 1.27050 2 
47.701 43.692 10.38820 -1.26020 2 
49.346 43.692 9.58687 -1.16154 2 
50.991 43.692 9.47683 -0.13117 2 
52.636 43.692 8.58210 1.73929 2 
54.280 43.692 11.79878 1.92750 2 
55.925 43.692 13.00010 3.23505 2 
57.570 43.692 15.14016 0.39452 2 
59.215 43.692 10.95595 -0.00941 2 
60.860 43.692 13.86699 4.20942 2 
62.505 43.692 13.07013 4.03070 2 
64.150 43.692 12.95124 4.73138 2 
65.794 43.692 9.83707 4.52872 2 
67.439 43.692 11.61193 -0.56884 2 
69.084 43.692 11.71836 -0.04636 2 
70.729 43.692 10.86489 0.01601 2 
72.374 43.692 10.88742 -3.41154 2 
74.019 43.692 10.52025 -0.01238 2 
75.664 43.692 9.99369 0.41751 2 
77.308 43.692 10.49847 0.96529 2 
78.953 43.692 14.35399 0.56353 2 
80.598 43.692 12.63401 3.66294 2 
82.243 43.692 8.75640 2.73930 2 
83.888 43.692 12.55309 0.26329 2 
85.533 43.692 15.88541 4.64783 2 
87.178 43.692 11.21598 3.09603 2 
88.822 43.692 14.16852 2.82914 2 
90.467 43.692 12.70927 1.63616 2 
92.112 43.692 10.56695 -0.56871 2 
93.757 43.692 8.51928 1.64968 2 
95.402 43.692 11.62829 4.09016 2 
97.047 43.692 11.34146 2.64377 2 
98.692 43.692 10.91637 1.77113 2 
100.336 43.692 11.79622 1.07459 2 
101.981 43.692 17.79986 -1.52239 2 
103.626 43.692 0.00000 -0.00000 0 
105.271 43.692 0.00000 -0.00000 0 
106.916 43.692 11.38711 1.24487 2 
108.561 43.692 10.57173 2.46881 2 
110.206 43.692 13.34259 2.66832 2 
111.850 43.692 12.92803 0.03961 2 
113.495 43.692 11.99839 2.18308 2 
115.140 43.692 15.31880 2.75580 2 
116.785 43.692 15.13289 1.65027 2 
118.430 43.692 11.36263 1.78460 2 
120.075 43.692 13.08520 -1.64039 2 
121.720 43.692 13.18327 -1.35287 2 
123.364 43.692 11.24112 -1.14923 2 
125.009 43.692 10.56588 0.67659 2 
126.654 43.692 11.21811 1.29481 2 
128.299 43.692 10.91887 0.75349 2 
129.944 43.692 11.38448 -1.81396 2 
131.589 43.692 9.85671 -0.84703 2 
133.234 43.692 11.63895 1.30101 2 
134.879 43.692 11.40479 1.12816 2 
136.523 43.692 14.08705 4.00004 2 
138.168 43.692 14.21465 0.57210 2 
139.813 43.692 12.82919 -0.34359 2 
141.458 43.692 11.20987 -1.90812 2 
143.103 43.692 10.78147 -0.51112 2 
144.748 43.692 12.22137 -0.93632 2 
146.393 43.692 13.14644 0.67871 2 
148.037 43.692 10.98468 1.43345 2 
149.682 43.692 12.00927 -0.04259 2 
151.327 43.692 11.66020 -0.28122 2 
152.972 43.692 4.34047 -1.65736 2 
-13.159 42.047 6.74166 0.28935 2 
-11.514 42.047 11.16503 -0.15793 2 
-9.869 42.047 7.40980 2.77076 2 
-8.224 42.047 9.48187 1.18777 2 
-6.579 42.047 10.93060 0.80909 2 
-4.935 42.047 11.20564 -0.12985 2 
-3.290 42.047 10.75780 -0.68325 2 
-1.645 42.047 10.46425 -1.53302 2 
0.000 42.047 9.68094 0.38755 2 
1.645 42.047 9.59664 1.39428 2 
3.290 42.047 12.83412 -1.97167 2 
4.935 42.047 0.00000 -0.00000 0 
6.579 42.047 0.00000 -0.00000 0 
8.224 42.047 0.00000 -0.00000 0 
9.869 42.047 0.00000 -0.00000 0 
11.514 42.047 0.00000 -0.00000 0 
13.159 42.047 0.00000 -0.00000 0 
14.804 42.047 0.00000 -0.00000 0 
16.449 42.047 0.00000 -0.00000 0 
18.093 42.047 0.00000 -0.00000 0 
19.738 42.047 0.00000 -0.00000 0 
21.383 42.047 0.00000 -0.00000 0 
23.028 42.047 6.40242 2.47449 2 
24.673 42.047 15.91007 1.28178 2 
26.318 42.047 9.16889 2.68415 2 
27.963 42.047 10.98400 1.56545 2 
29.607 42.047 9.22521 3.49572 2 
31.252 42.047 9.24677 2.49962 2 
32.897 42.047 14.14130 0.84322 2 
34.542 42.047 12.83722 -1.38662 2 
36.187 42.047 12.74561 2.46852 2 
37.832 42.047 7.91974 0.47559 2 
39.477 42.047 12.05374 -0.21883 2 
41.121 42.047 10.05486 2.72310 2 
42.766 42.047 8.76432 3.46444 2 
44.411 42.047 13.58671 2.23418 2 
46.056 42.047 11.21555 3.14757 2 
47.701 42.047 9.94131 5.03374 2 
49.346 42.047 13.04114 4.06691 2 
50.991 42.047 9.91454 -0.57573 2 
52.636 42.047 8.09694 -2.45584 2 
54.280 42.047 12.29588 2.50946 2 
55.925 42.047 11.48003 1.29568 2 
57.570 42.047 9.42870 -1.70529 2 
59.215 42.047 12.51104 0.84949 2 
60.860 42.047 13.21368 -0.53685 2 
62.505 42.047 12.73669 -0.76332 2 
64.150 42.047 8.25413 2.86239 2 
65.794 42.047 11.50918 3.41061 2 
67.439 42.047 11.08951 -0.11399 2 
69.084 42.047 7.80659 -2.91601 2 
70.729 42.047 12.09925 -1.21955 2 
72.374 42.047 10.60009 -0.47937 2 
74.019 42.047 9.40367 2.72413 2 
75.664 42.047 8.89497 2.31347 2 
77.308 42.047 12.88812 2.41997 2 
78.953 42.047 12.91024 -0.49647 2 
80.598 42.047 8.79537 2.19673 2 
82.243 42.047 9.39405 5.44630 2 
83.888 42.047 11.93859 0.35245 2 
85.533 42.047 8.46707 -1.27408 2 
87.178 42.047 11.66050 1.56661 2 
88.822 42.047 12.16455 4.86199 2 
90.467 42.047 12.97339 4.14982 2 
92.112 42.047 15.17324 1.72162 2 
93.757 42.047 11.89605 1.76326 2 
95.402 42.047 10.68839 1.54864 2 
97.047 42.047 13.87559 3.48613 2 
98.692 42.047 11.70592 2.07807 2 
100.336 42.047 12.24513 -0.15322 2 
101.981 42.047 9.01182 2.98325 2 
103.626 42.047 0.00000 0.00000 0 
105.271 42.047 0.00000 0.00000 0 
106.916 42.047 12.26995 3.73523 2 
108.561 42.047 10.92820 2.01982 2 
110.206 42.047 11.94187 3.23468 2 
111.850 42.047 7.18471 2.34361 2 
113.495 42.047 8.68115 2.50424 2 
115.140 42.047 13.49949 2.69110 2 
116.785 42.047 12.86335 0.41417 2 
118.430 42.047 11.63649 0.28497 2 
120.075 42.047 11.77874 0.25274 2 
121.720 42.047 9.11245 0.51504 2 
123.364 42.047 12.29529 -1.76324 2 
125.009 42.047 12.63783 -0.14266 2 
126.654 42.047 12.37994 0.03899 2 
128.299 42.047 13.90011 -0.29763 2 
129.944 42.047 11.41572 0.81894 2 
131.589 42.047 11.98203 2.29361 2 
133.234 42.047 11.10226 2.69802 2 
134.879 42.047 10.54505 3.16114 2 
136.523 42.047 9.24361 3.26385 2 
138.168 42.047 14.36277 3.01216 2 
139.813 42.047 15.47325 0.03871 2 
141.458 42.047 13.29186 -3.79575 2 
143.103 42.047 10.80690 -1.18990 2 
144.748 42.047 11.56324 -0.60465 2 
146.393 42.047 12.41038 -0.43045 2 
148.037 42.047 11.32759 0.16703 2 
149.682 42.047 12.47657 1.71274 2 
151.327 42.047 13.82378 -1.68022 2 
152.972 42.047 4.52294 -1.76631 2 
-13.159 40.402 4.74253 0.55147 2 
-11.514 40.402 10.64852 -1.09137 2 
-9.869 40.402 10.61770 -0.34015 2 
-8.224 40.402 10.53114 1.81439 2 
-6.579 40.402 9.61168 1.26773 2 
-4.935 40.402 8.86778 0.87719 2 
-3.290 40.402 10.61354 0.97571 2 
-1.645 40.402 13.07474 0.27923 2 
0.000 40.402 12.37964 2.17268 2 
1.645 40.402 11.10421 -0.44372 2 
3.290 40.402 15.40156 -0.47188 2 
4.935 40.402 0.00000 -0.00000 0 
6.579 40.402 0.00000 -0.00000 0 
8.224 40.402 0.00000 -0.00000 0 
9.869 40.402 0.00000 -0.00000 0 
11.514 40.402 0.00000 -0.00000 0 
13.159 40.402 0.00000 -0.00000 0 
14.804 40.402 0.00000 -0.00000 0 
16.449 40.402 0.00000 -0.00000 0 
18.093 40.402 0.00000 -0.00000 0 
19.738 40.402 0.00000 -0.00000 0 
21.383 40.402 0.00000 -0.00000 0 
23.028 40.402 6.37370 3.79380 2 
24.673 40.402 13.38930 -1.20498 2 
26.318 40.402 8.81583 1.27428 2 
27.963 40.402 11.02510 1.45175 2 
29.607 40.402 10.88638 5.54994 2 
31.252 40.402 7.87111 5.36771 2 
32.897 40.402 10.05532 0.59140 2 
34.542 40.402 11.05550 0.86474 2 
36.187 40.402 10.60113 2.80968 2 
37.832 40.402 11.48680 -0.75393 2 
39.477 40.402 13.69734 0.67747 2 
41.121 40.402 8.40346 3.16630 2 
42.766 40.402 11.41287 2.01989 2 
44.411 40.402 11.55881 1.03603 2 
46.056 40.402 10.32916 3.64004 2 
47.701 40.402 9.41358 4.30188 2 
49.346 40.402 7.36055 7.16080 2 
50.991 40.402 12.20307 -1.33741 2 
52.636 40.402 13.56675 -1.34914 2 
54.280 40.402 13.19224 2.55899 2 
55.925 40.402 12.49324 0.41263 2 
57.570 40.402 12.43171 -0.29966 2 
59.215 40.402 11.25721 3.74969 2 
60.860 40.402 11.00737 -0.32276 2 
62.505 40.402 13.03402 0.20090 2 
64.150 40.402 8.50247 2.04792 2 
65.794 40.402 11.66093 1.33156 2 
67.439 40.402 12.60862 0.76210 2 
69.084 40.402 7.49617 -0.00771 2 
70.729 40.402 10.97905 3.21710 2 
72.374 40.402 12.34506 4.82246 2 
74.019 40.402 12.63829 1.96620 2 